# vtk DataFile Version 3.0
LBM output step 1300
ASCII
DATASET STRUCTURED_POINTS
DIMENSIONS 400 100 1
ORIGIN 0 0 0
SPACING 1 1 1
POINT_DATA 40000
SCALARS velocity_magnitude double 1
LOOKUP_TABLE default
0
0
0
0
0
0
0
0
0
0
0
0
0
0
0
0
0
0
0
0
0
0
0
0
0
0
0
0
0
0
0
0
0
0
0
0
0
0
0
0
0
0
0
0
0
0
0
0
0
0
0
0
0
0
0
0
0
0
0
0
0
0
0
0
0
0
0
0
0
0
0
0
0
0
0
0
0
0
0
0
0
0
0
0
0
0
0
0
0
0
0
0
0
0
0
0
0
0
0
0
0
0
0
0
0
0
0
0
0
0
0
0
0
0
0
0
0
0
0
0
0
0
0
0
0
0
0
0
0
0
0
0
0
0
0
0
0
0
0
0
0
0
0
0
0
0
0
0
0
0
0
0
0
0
0
0
0
0
0
0
0
0
0
0
0
0
0
0
0
0
0
0
0
0
0
0
0
0
0
0
0
0
0
0
0
0
0
0
0
0
0
0
0
0
0
0
0
0
0
0
0
0
0
0
0
0
0
0
0
0
0
0
0
0
0
0
0
0
0
0
0
0
0
0
0
0
0
0
0
0
0
0
0
0
0
0
0
0
0
0
0
0
0
0
0
0
0
0
0
0
0
0
0
0
0
0
0
0
0
0
0
0
0
0
0
0
0
0
0
0
0
0
0
0
0
0
0
0
0
0
0
0
0
0
0
0
0
0
0
0
0
0
0
0
0
0
0
0
0
0
0
0
0
0
0
0
0
0
0
0
0
0
0
0
0
0
0
0
0
0
0
0
0
0
0
0
0
0
0
0
0
0
0
0
0
0
0
0
0
0
0
0
0
0
0
0
0
0
0
0
0
0
0
0
0
0
0
0
0
0
0
0
0
0
0
0
0
0
0
0
0
0
0
0
0
0
0
0
0
0
0
0
0
0
0
0
0
0
0
0
0
0
0
0
0
0
0
0
0
0
0.04
0.0137548
0.00816088
0.0126711
0.0151749
0.0147895
0.0117462
0.0110863
0.0111065
0.0111437
0.0108037
0.0108059
0.0105421
0.0103665
0.0102405
0.01023
0.0100582
0.00994279
0.00984298
0.00976924
0.00963622
0.00955428
0.00946607
0.0093801
0.00927746
0.00920892
0.00912913
0.00905228
0.00897427
0.00891362
0.0088421
0.00877506
0.00870856
0.00864759
0.00857791
0.00851213
0.00844534
0.00837959
0.00830951
0.0082439
0.00817883
0.00811686
0.00805728
0.0080066
0.00796368
0.00793258
0.00791647
0.0079216
0.00795042
0.00800796
0.00809972
0.00822906
0.00839857
0.00860783
0.00885833
0.00914296
0.00945879
0.00979242
0.0101388
0.010478
0.0108036
0.0110917
0.0113403
0.011525
0.011652
0.0117041
0.0117042
0.0116432
0.0115598
0.0114512
0.0113606
0.0112735
0.011226
0.0111867
0.0111823
0.0111722
0.0111877
0.0111897
0.0112154
0.0112257
0.0112577
0.0112657
0.0112843
0.011269
0.0112589
0.0112163
0.0111864
0.0111367
0.0111085
0.0110661
0.0110438
0.0110045
0.0109758
0.0109236
0.0108749
0.010803
0.0107334
0.0106467
0.0105675
0.0104799
0.0104025
0.0103205
0.0102481
0.0101742
0.0101089
0.0100441
0.0099891
0.00993659
0.00988957
0.00984195
0.00979442
0.00973962
0.00967843
0.00960833
0.00953015
0.00944324
0.00935051
0.00925273
0.00915199
0.00904983
0.00894929
0.00885083
0.00875435
0.00866058
0.0085688
0.00847594
0.00838271
0.00828994
0.00819591
0.00810185
0.00801126
0.00792377
0.00783967
0.00776218
0.00769209
0.00762788
0.00757081
0.00752215
0.00748047
0.00744466
0.00741562
0.00739283
0.00737426
0.00735919
0.00734805
0.00734017
0.00733481
0.00733273
0.00733509
0.00734201
0.00735357
0.00737035
0.00739253
0.00741939
0.00745019
0.00748433
0.00752076
0.0075581
0.00759522
0.00763093
0.00766379
0.00769284
0.00771753
0.00773723
0.00775156
0.00776099
0.00776631
0.00776807
0.00776713
0.00776497
0.00776271
0.00776081
0.00775974
0.00775987
0.00776082
0.00776169
0.00776165
0.00776002
0.00775601
0.00774891
0.00773861
0.00772547
0.00770988
0.00769226
0.00767345
0.00765427
0.00763513
0.00761634
0.00759832
0.0075812
0.00756486
0.00754928
0.00753451
0.00752052
0.00750727
0.00749485
0.00748339
0.00747295
0.00746359
0.00745539
0.00744844
0.00744277
0.00743837
0.00743523
0.00743325
0.00743223
0.00743193
0.00743211
0.0074326
0.00743329
0.00743424
0.00743567
0.0074379
0.0074413
0.00744625
0.00745304
0.0074618
0.00747248
0.00748485
0.00749852
0.00751298
0.00752767
0.00754202
0.00755553
0.00756781
0.0075786
0.00758777
0.00759533
0.00760139
0.00760614
0.0076098
0.00761257
0.00761461
0.00761599
0.00761666
0.00761642
0.00761487
0.00761147
0.00760553
0.00759639
0.00758346
0.00756646
0.00754549
0.00752116
0.00749455
0.0074671
0.00744041
0.00741596
0.00739488
0.00737773
0.00736441
0.00735426
0.00734623
0.00733921
0.00733224
0.00732483
0.00731698
0.00730917
0.00730222
0.00729702
0.00729439
0.00729491
0.00729895
0.00730674
0.00731842
0.00733411
0.00735388
0.00737759
0.00740482
0.00743471
0.00746608
0.00749748
0.00752747
0.00755475
0.00757834
0.00759761
0.00761225
0.00762223
0.00762773
0.0076291
0.00762686
0.00762164
0.00761416
0.00760517
0.00759541
0.00758559
0.00757639
0.00756844
0.00756226
0.00755818
0.00755625
0.00755618
0.00755737
0.00755899
0.00756015
0.00756002
0.00755794
0.00755345
0.00754635
0.00753664
0.00752456
0.00751059
0.00749538
0.0074798
0.00746482
0.00745148
0.00744079
0.00743365
0.00743069
0.00743224
0.00743824
0.00744826
0.00746149
0.00747687
0.00749316
0.00750912
0.00752365
0.0075359
0.00754536
0.00755199
0.00755613
0.00755846
0.00755989
0.00756141
0.00756397
0.0075683
0.00757489
0.00758394
0.00759535
0.00760875
0.00762365
0.00763945
0.00765555
0.00767145
0.00768675
0.00770118
0.00771455
0.00772672
0.00773751
0.0077467
0.00775397
0.00775896
0.00776128
0.00776057
0.00775655
0.00774901
0.00773791
0.00772331
0.00770543
0.00768468
0.00766163
0.00763705
0.00761186
0.0075871
0.00756382
0.007543
0.00752538
0.00751144
0.00750128
0.00749465
0.00749102
0.00748964
0.00748974
0.00749059
0.00749166
0.00749268
0.00749368
0.00749497
0.00749709
0.00750071
0.00750653
0.00751519
0.00752716
0.00754269
0.00756179
0.00758416
0.00760926
0.00763629
0.00766432
0.00769233
0.00771926
0.00774422
0.00776645
0.00778543
0.00780093
0.00781301
0.007822
0.00782839
0.00783295
0.00783642
0.00783959
0.00784296
0.00784731
0.00785265
0.00785891
0.0078662
0.00787537
0.00788388
0.00789039
0.00789039
0.04
0.0229085
0.0246314
0.0220496
0.0149596
0.0141209
0.0171197
0.0177524
0.0161069
0.0154556
0.0155398
0.0153531
0.014994
0.0149272
0.0147563
0.0144755
0.0142887
0.0142212
0.0140477
0.0138598
0.0137366
0.0136337
0.0134814
0.0133571
0.0132642
0.0131649
0.0130549
0.012976
0.0129084
0.0128353
0.0127677
0.0127186
0.0126678
0.012613
0.0125632
0.0125176
0.0124652
0.0124107
0.0123592
0.012308
0.0122546
0.0122051
0.0121626
0.0121263
0.0120988
0.0120864
0.0120928
0.0121202
0.0121756
0.0122646
0.0123925
0.0125614
0.0127784
0.0130417
0.0133539
0.0137076
0.0141028
0.0145233
0.014967
0.0154103
0.01585
0.016257
0.0166329
0.0169449
0.0172053
0.0173871
0.017519
0.0175809
0.0176229
0.0176275
0.0176525
0.0176691
0.0177304
0.0177866
0.0178865
0.0179671
0.0180839
0.0181728
0.0182994
0.0183942
0.0185255
0.0186155
0.0187325
0.0187941
0.0188768
0.0189049
0.0189628
0.0189754
0.0190258
0.0190382
0.0190881
0.0190942
0.0191268
0.0191135
0.0191191
0.0190749
0.0190474
0.0189813
0.0189338
0.0188546
0.0187958
0.018714
0.0186494
0.0185644
0.0184952
0.0184132
0.0183446
0.018266
0.0181987
0.0181204
0.0180444
0.0179558
0.0178625
0.0177539
0.01764
0.0175138
0.0173812
0.0172417
0.0171003
0.016955
0.0168116
0.0166705
0.0165322
0.0163959
0.0162631
0.0161315
0.0160003
0.0158701
0.0157421
0.015616
0.0154934
0.0153763
0.0152662
0.015163
0.0150684
0.0149836
0.0149078
0.0148407
0.0147834
0.0147348
0.0146934
0.0146594
0.014632
0.0146093
0.0145905
0.0145763
0.0145657
0.0145587
0.0145562
0.014559
0.0145668
0.0145801
0.0145989
0.014623
0.0146517
0.0146839
0.014719
0.0147558
0.0147928
0.0148288
0.0148628
0.0148936
0.0149201
0.014942
0.0149594
0.0149719
0.01498
0.0149849
0.0149876
0.0149885
0.014989
0.0149901
0.014992
0.0149947
0.0149982
0.0150018
0.0150045
0.0150054
0.0150037
0.0149991
0.0149911
0.0149797
0.0149654
0.0149488
0.0149305
0.0149111
0.0148913
0.0148718
0.0148525
0.014834
0.0148163
0.0147995
0.0147836
0.0147687
0.0147549
0.0147422
0.0147308
0.0147207
0.0147122
0.0147052
0.0146997
0.0146958
0.0146934
0.0146925
0.0146928
0.0146942
0.0146965
0.0146992
0.0147024
0.0147059
0.0147098
0.0147143
0.0147197
0.0147265
0.0147349
0.0147452
0.0147575
0.0147717
0.0147875
0.0148046
0.0148223
0.0148401
0.0148574
0.0148736
0.0148882
0.014901
0.0149117
0.0149203
0.0149268
0.0149315
0.0149346
0.0149362
0.0149368
0.0149363
0.014935
0.0149327
0.0149292
0.0149239
0.0149164
0.0149058
0.0148918
0.0148739
0.0148522
0.0148274
0.0148003
0.0147726
0.0147456
0.014721
0.0146999
0.0146829
0.0146699
0.0146604
0.0146534
0.0146477
0.0146425
0.0146371
0.0146318
0.0146268
0.0146232
0.0146217
0.0146233
0.0146285
0.0146376
0.0146509
0.0146683
0.01469
0.0147158
0.0147455
0.0147785
0.014814
0.0148506
0.0148867
0.0149209
0.0149517
0.0149782
0.0149997
0.015016
0.0150269
0.0150329
0.0150342
0.0150317
0.015026
0.0150179
0.0150084
0.0149983
0.0149882
0.0149789
0.014971
0.014965
0.0149611
0.0149593
0.0149593
0.0149605
0.0149619
0.0149626
0.0149619
0.014959
0.0149536
0.0149454
0.0149346
0.0149214
0.0149064
0.0148903
0.0148741
0.014859
0.014846
0.0148361
0.0148304
0.0148295
0.0148338
0.0148431
0.014857
0.0148747
0.0148949
0.0149165
0.014938
0.0149582
0.0149763
0.0149916
0.015004
0.0150137
0.0150213
0.0150277
0.0150339
0.0150408
0.015049
0.0150592
0.0150715
0.0150857
0.0151017
0.0151188
0.0151365
0.0151542
0.0151714
0.0151876
0.0152028
0.0152165
0.0152288
0.0152393
0.015248
0.0152546
0.0152587
0.0152601
0.0152584
0.0152535
0.0152453
0.0152337
0.015219
0.0152015
0.0151814
0.0151596
0.0151366
0.0151135
0.0150913
0.0150708
0.0150532
0.015039
0.0150287
0.0150224
0.0150198
0.0150205
0.0150237
0.0150286
0.0150346
0.0150412
0.0150481
0.0150553
0.0150632
0.0150723
0.0150831
0.0150962
0.0151122
0.0151315
0.0151541
0.0151799
0.0152085
0.0152393
0.0152715
0.015304
0.0153359
0.0153662
0.0153939
0.0154185
0.0154396
0.0154571
0.015471
0.0154819
0.0154903
0.0154971
0.015503
0.0155088
0.0155151
0.015522
0.0155299
0.0155392
0.0155484
0.0155566
0.0155641
0.015571
0.015571
0.04
0.0237469
0.0219234
0.0189588
0.020125
0.0222289
0.0212769
0.0196062
0.0197583
0.0202473
0.0196859
0.0190645
0.0189191
0.0187972
0.0184395
0.0182094
0.0180605
0.0178457
0.0176005
0.01746
0.0173124
0.0171295
0.0169669
0.0168556
0.0167257
0.0165961
0.0164948
0.016415
0.0163265
0.016254
0.016202
0.0161561
0.0161077
0.0160719
0.0160414
0.0160072
0.0159703
0.015938
0.0159034
0.0158656
0.0158294
0.0157986
0.0157706
0.0157489
0.0157392
0.0157445
0.0157664
0.0158112
0.0158856
0.0159925
0.0161375
0.0163254
0.0165606
0.0168413
0.0171708
0.017542
0.0179531
0.0183902
0.0188495
0.0193084
0.0197637
0.0201879
0.0205796
0.02091
0.0211907
0.0213945
0.0215502
0.0216411
0.0217157
0.0217566
0.0218235
0.021886
0.0219976
0.0221047
0.0222589
0.0223912
0.0225636
0.0227035
0.0228863
0.0230319
0.023223
0.0233642
0.023541
0.023652
0.023797
0.0238726
0.0239907
0.0240495
0.0241638
0.0242195
0.0243297
0.0243773
0.0244713
0.0244943
0.024557
0.024548
0.0245769
0.024542
0.0245464
0.0244961
0.0244861
0.0244282
0.024405
0.0243396
0.0243053
0.0242374
0.0241959
0.0241252
0.0240772
0.024003
0.0239376
0.0238463
0.0237597
0.0236461
0.0235308
0.0233977
0.0232633
0.0231136
0.0229655
0.0228116
0.0226607
0.0225073
0.0223598
0.0222133
0.022069
0.0219245
0.0217833
0.0216413
0.0215003
0.0213625
0.0212289
0.0210988
0.0209761
0.0208617
0.0207551
0.0206574
0.0205704
0.0204926
0.0204236
0.0203643
0.0203138
0.0202701
0.0202333
0.0202033
0.020178
0.0201572
0.0201419
0.0201317
0.0201265
0.0201272
0.0201343
0.0201475
0.0201665
0.0201913
0.0202208
0.0202543
0.0202904
0.0203281
0.0203661
0.0204029
0.0204374
0.0204687
0.020496
0.0205187
0.020537
0.0205514
0.020562
0.0205695
0.0205754
0.0205804
0.0205849
0.0205899
0.0205957
0.0206023
0.0206091
0.0206157
0.0206214
0.0206253
0.0206267
0.0206251
0.0206205
0.0206132
0.0206031
0.020591
0.0205777
0.0205636
0.0205492
0.020535
0.0205215
0.0205086
0.0204965
0.0204854
0.0204752
0.0204659
0.0204574
0.02045
0.0204436
0.0204384
0.0204344
0.0204318
0.0204305
0.0204305
0.0204319
0.0204345
0.0204382
0.0204428
0.0204481
0.020454
0.0204602
0.0204668
0.0204738
0.0204815
0.0204902
0.0205001
0.0205116
0.0205249
0.02054
0.0205571
0.0205756
0.0205954
0.0206159
0.0206365
0.0206566
0.0206758
0.0206935
0.0207094
0.0207234
0.0207353
0.0207452
0.0207533
0.0207598
0.0207649
0.0207689
0.0207718
0.0207738
0.0207747
0.0207742
0.0207719
0.0207672
0.0207595
0.0207483
0.0207333
0.0207149
0.0206935
0.0206703
0.0206468
0.0206244
0.0206045
0.0205882
0.020576
0.0205676
0.0205624
0.0205592
0.0205571
0.0205551
0.0205527
0.02055
0.0205476
0.0205464
0.0205474
0.0205513
0.0205587
0.0205699
0.0205849
0.0206038
0.0206266
0.0206532
0.0206835
0.0207168
0.0207524
0.020789
0.0208253
0.0208598
0.0208911
0.0209184
0.0209409
0.0209585
0.020971
0.0209786
0.0209818
0.0209812
0.0209774
0.0209714
0.020964
0.020956
0.0209481
0.0209411
0.0209356
0.0209321
0.0209308
0.0209318
0.0209346
0.0209387
0.0209432
0.0209473
0.02095
0.0209508
0.0209491
0.0209448
0.0209379
0.0209286
0.0209175
0.0209053
0.0208929
0.0208813
0.0208715
0.0208647
0.0208615
0.0208628
0.0208688
0.0208793
0.0208941
0.0209123
0.0209328
0.0209545
0.020976
0.0209963
0.0210145
0.02103
0.0210427
0.0210528
0.0210611
0.0210682
0.0210752
0.0210828
0.0210918
0.0211026
0.0211154
0.02113
0.0211462
0.0211634
0.0211812
0.0211989
0.0212163
0.021233
0.0212488
0.0212634
0.0212768
0.0212889
0.0212993
0.0213078
0.0213142
0.0213182
0.0213194
0.0213177
0.0213129
0.021305
0.0212941
0.0212804
0.0212641
0.021246
0.0212266
0.0212069
0.0211877
0.0211701
0.0211549
0.0211429
0.0211345
0.0211298
0.0211288
0.0211309
0.0211356
0.0211422
0.0211501
0.0211587
0.0211678
0.0211773
0.0211874
0.0211985
0.0212111
0.0212257
0.0212428
0.0212627
0.0212856
0.0213114
0.0213398
0.0213702
0.0214018
0.0214339
0.0214653
0.0214954
0.0215231
0.0215478
0.0215691
0.0215869
0.0216012
0.0216124
0.0216211
0.0216281
0.0216339
0.0216394
0.0216453
0.0216518
0.0216589
0.0216672
0.0216764
0.0216853
0.0216937
0.0217016
0.0217016
0.04
0.0255288
0.0267688
0.0267895
0.0265553
0.023984
0.0224292
0.0234169
0.0241291
0.0229966
0.022093
0.0222705
0.022273
0.021744
0.0213792
0.0213151
0.0210855
0.0207768
0.020597
0.0204679
0.0202382
0.0200444
0.0199178
0.0197813
0.01961
0.0194895
0.0193936
0.0192871
0.0191848
0.0191222
0.0190654
0.0190086
0.0189669
0.0189455
0.0189198
0.0188956
0.0188791
0.0188657
0.0188447
0.0188256
0.0188105
0.0187968
0.0187837
0.0187807
0.0187891
0.0188098
0.0188474
0.0189105
0.0190016
0.0191244
0.0192866
0.0194926
0.0197443
0.0200427
0.0203896
0.0207786
0.0212067
0.021662
0.0221372
0.022614
0.0230852
0.0235257
0.0239313
0.0242787
0.0245716
0.0247893
0.0249566
0.0250623
0.0251472
0.0252042
0.0252853
0.0253673
0.0254954
0.0256242
0.025796
0.0259494
0.0261385
0.0262983
0.0264995
0.0266673
0.0268794
0.0270434
0.0272448
0.0273789
0.0275481
0.027645
0.0277907
0.0278699
0.0280135
0.0280893
0.0282304
0.0282958
0.0284237
0.0284629
0.0285598
0.028568
0.0286352
0.0286148
0.0286574
0.0286232
0.0286521
0.028606
0.028618
0.0285649
0.0285639
0.0285019
0.0284898
0.0284266
0.0284005
0.0283279
0.0282833
0.0281919
0.028117
0.0280034
0.0278993
0.0277623
0.0276338
0.0274817
0.0273367
0.0271772
0.0270259
0.026867
0.0267158
0.0265607
0.0264109
0.0262573
0.0261069
0.0259548
0.0258045
0.0256541
0.0255086
0.0253662
0.0252294
0.0250998
0.0249791
0.0248662
0.024763
0.0246701
0.0245865
0.0245116
0.0244462
0.0243891
0.024339
0.0242958
0.0242595
0.0242291
0.0242047
0.0241868
0.0241758
0.0241718
0.0241749
0.0241852
0.0242025
0.0242262
0.024255
0.0242882
0.0243246
0.0243626
0.0244008
0.0244381
0.024473
0.0245045
0.0245324
0.0245563
0.0245757
0.0245916
0.0246048
0.0246155
0.0246245
0.0246332
0.0246418
0.0246506
0.0246598
0.0246694
0.0246791
0.0246881
0.0246958
0.0247016
0.0247051
0.0247058
0.0247035
0.0246988
0.024692
0.0246832
0.0246732
0.0246629
0.0246523
0.0246419
0.0246322
0.0246235
0.0246155
0.0246085
0.0246025
0.0245974
0.0245932
0.0245899
0.0245876
0.0245864
0.0245864
0.0245875
0.0245899
0.0245936
0.0245985
0.0246045
0.0246115
0.0246194
0.0246279
0.024637
0.0246466
0.0246567
0.0246673
0.0246789
0.0246914
0.0247054
0.0247209
0.0247382
0.0247573
0.0247783
0.0248007
0.0248244
0.0248488
0.0248733
0.0248974
0.0249206
0.0249424
0.0249623
0.0249803
0.0249961
0.0250097
0.0250214
0.0250312
0.0250394
0.0250462
0.0250518
0.0250562
0.0250594
0.0250609
0.0250604
0.0250574
0.0250512
0.0250415
0.0250282
0.0250116
0.0249923
0.0249716
0.0249508
0.0249314
0.0249147
0.0249018
0.0248928
0.0248875
0.0248851
0.0248845
0.0248847
0.0248847
0.0248841
0.0248832
0.0248826
0.0248832
0.024886
0.0248919
0.0249012
0.0249143
0.0249311
0.0249515
0.0249756
0.0250032
0.0250342
0.0250681
0.025104
0.0251409
0.0251775
0.0252122
0.0252439
0.0252717
0.0252949
0.0253132
0.0253265
0.0253351
0.0253392
0.0253395
0.0253368
0.0253318
0.0253256
0.0253189
0.0253126
0.0253073
0.0253038
0.0253023
0.0253033
0.0253067
0.0253121
0.0253188
0.0253261
0.025333
0.0253386
0.0253424
0.0253438
0.0253426
0.0253388
0.0253325
0.0253244
0.0253151
0.0253056
0.0252967
0.0252895
0.0252849
0.0252839
0.0252869
0.0252943
0.025306
0.0253217
0.0253405
0.0253614
0.0253835
0.0254053
0.025426
0.0254446
0.0254605
0.0254738
0.0254846
0.0254935
0.0255013
0.0255088
0.0255169
0.0255262
0.0255371
0.0255497
0.025564
0.0255797
0.0255962
0.0256131
0.0256301
0.0256468
0.0256629
0.0256783
0.0256927
0.0257061
0.0257183
0.0257291
0.0257381
0.0257451
0.0257499
0.0257521
0.0257515
0.0257481
0.0257416
0.0257321
0.0257199
0.025705
0.0256881
0.0256698
0.0256509
0.0256322
0.0256148
0.0255995
0.025587
0.0255779
0.0255722
0.02557
0.025571
0.0255747
0.0255806
0.025588
0.0255964
0.0256057
0.0256156
0.0256263
0.025638
0.0256511
0.0256661
0.0256834
0.0257032
0.0257256
0.0257505
0.0257778
0.0258069
0.0258371
0.0258677
0.0258978
0.0259264
0.0259529
0.0259765
0.0259968
0.0260137
0.0260273
0.0260378
0.0260459
0.0260521
0.0260575
0.0260624
0.0260676
0.0260737
0.0260809
0.0260888
0.0260972
0.0261064
0.0261162
0.0261253
0.0261253
0.04
0.0264087
0.0275112
0.026165
0.0254127
0.0255521
0.0266076
0.0259878
0.0245695
0.0244316
0.0250959
0.0247944
0.0240124
0.0238261
0.0238981
0.0236163
0.0232469
0.0231159
0.0229813
0.0227331
0.0225303
0.022417
0.0222511
0.0220674
0.0219371
0.0218321
0.0216935
0.0215751
0.0214915
0.0214135
0.0213292
0.021275
0.0212395
0.0212062
0.0211787
0.0211712
0.0211662
0.0211589
0.0211552
0.0211584
0.0211582
0.0211585
0.0211655
0.021181
0.0212023
0.0212374
0.0212923
0.0213693
0.0214717
0.0216087
0.0217848
0.0220023
0.0222656
0.0225774
0.0229357
0.0233367
0.0237764
0.0242436
0.0247293
0.0252185
0.0256985
0.0261495
0.0265638
0.0269203
0.0272171
0.027443
0.0276136
0.0277245
0.0278111
0.0278773
0.0279628
0.0280569
0.0281938
0.0283392
0.0285205
0.0286901
0.0288872
0.0290623
0.0292716
0.0294556
0.0296772
0.0298587
0.0300723
0.0302234
0.030403
0.0305148
0.0306747
0.0307677
0.030924
0.0310141
0.031175
0.0312517
0.0313984
0.0314509
0.0315737
0.0315926
0.0316864
0.0316787
0.031754
0.0317298
0.0317893
0.0317537
0.0317992
0.0317516
0.0317813
0.0317252
0.0317407
0.0316807
0.0316798
0.0316058
0.0315822
0.031491
0.0314321
0.0313156
0.0312266
0.0310872
0.0309681
0.0308136
0.0306765
0.0305121
0.030364
0.0302009
0.0300497
0.0298862
0.0297333
0.0295725
0.0294151
0.0292522
0.0290945
0.0289327
0.0287743
0.0286181
0.0284677
0.0283207
0.0281825
0.0280521
0.0279301
0.0278169
0.0277141
0.0276198
0.0275341
0.0274574
0.0273889
0.0273273
0.0272734
0.0272273
0.0271882
0.0271569
0.027134
0.0271193
0.0271129
0.027115
0.0271247
0.0271416
0.0271647
0.0271926
0.0272237
0.0272569
0.0272903
0.0273227
0.0273531
0.0273802
0.0274036
0.0274235
0.02744
0.0274532
0.0274641
0.0274737
0.0274825
0.0274907
0.0274992
0.0275081
0.0275172
0.0275261
0.0275347
0.0275424
0.0275487
0.0275529
0.0275547
0.0275543
0.0275514
0.0275461
0.027539
0.0275308
0.0275215
0.0275117
0.0275021
0.027493
0.0274845
0.0274769
0.0274706
0.0274653
0.0274609
0.0274576
0.0274552
0.0274537
0.0274531
0.0274535
0.027455
0.0274576
0.0274613
0.0274662
0.0274722
0.0274792
0.0274872
0.0274959
0.0275052
0.0275152
0.0275257
0.027537
0.0275491
0.0275622
0.0275765
0.0275923
0.0276097
0.0276289
0.0276498
0.0276725
0.0276967
0.027722
0.0277481
0.0277743
0.0278003
0.0278253
0.0278489
0.0278708
0.0278905
0.027908
0.0279231
0.0279359
0.0279467
0.0279557
0.0279631
0.0279691
0.0279737
0.0279769
0.0279784
0.0279778
0.0279745
0.0279681
0.0279583
0.0279449
0.0279284
0.0279097
0.0278897
0.0278701
0.0278522
0.0278373
0.0278262
0.027819
0.0278155
0.0278147
0.0278154
0.0278167
0.0278175
0.0278177
0.0278174
0.0278173
0.0278184
0.0278218
0.0278282
0.0278381
0.0278515
0.0278685
0.0278889
0.0279125
0.0279393
0.027969
0.0280013
0.0280355
0.0280704
0.0281049
0.0281376
0.0281675
0.0281935
0.0282152
0.0282321
0.0282443
0.0282518
0.028255
0.0282546
0.0282513
0.028246
0.0282396
0.028233
0.0282271
0.0282225
0.0282199
0.0282196
0.0282218
0.0282265
0.0282333
0.0282415
0.0282503
0.0282588
0.0282663
0.0282719
0.0282751
0.0282758
0.0282739
0.0282696
0.0282634
0.028256
0.0282483
0.0282411
0.0282355
0.0282324
0.0282324
0.0282363
0.0282442
0.028256
0.0282715
0.0282899
0.0283103
0.0283316
0.0283527
0.0283727
0.0283906
0.028406
0.0284188
0.0284292
0.0284376
0.0284449
0.0284517
0.028459
0.0284672
0.0284767
0.0284877
0.0285
0.0285133
0.0285274
0.0285417
0.0285561
0.0285702
0.028584
0.0285971
0.0286096
0.0286212
0.0286318
0.0286411
0.0286489
0.028655
0.028659
0.0286607
0.0286599
0.0286564
0.0286501
0.0286409
0.0286289
0.0286144
0.0285978
0.0285796
0.0285606
0.0285416
0.0285236
0.0285074
0.0284937
0.028483
0.0284755
0.0284713
0.0284703
0.028472
0.0284761
0.0284819
0.0284891
0.0284974
0.0285066
0.0285167
0.0285279
0.0285405
0.0285547
0.0285709
0.0285893
0.02861
0.0286328
0.0286577
0.0286841
0.0287114
0.0287391
0.0287661
0.0287919
0.0288155
0.0288364
0.0288542
0.0288686
0.0288798
0.0288881
0.028894
0.0288983
0.0289016
0.0289049
0.0289085
0.0289131
0.0289191
0.0289265
0.0289351
0.0289446
0.0289542
0.0289635
0.0289635
0.04
0.0243853
0.024954
0.0261408
0.0268917
0.0267768
0.0264502
0.0258234
0.0261545
0.0265513
0.0260611
0.0253946
0.0255164
0.0256901
0.0253258
0.0249349
0.0249046
0.024851
0.0245839
0.0243766
0.0242929
0.024155
0.0239589
0.0238321
0.0237313
0.0235906
0.0234516
0.0233595
0.0232639
0.0231569
0.0230732
0.0230187
0.0229619
0.0229156
0.0228936
0.0228856
0.0228764
0.0228779
0.0228897
0.0229024
0.0229128
0.0229307
0.0229542
0.0229809
0.0230151
0.0230656
0.0231323
0.0232185
0.0233322
0.0234802
0.0236641
0.0238896
0.0241618
0.024481
0.0248457
0.0252539
0.0256992
0.026172
0.0266629
0.0271563
0.0276386
0.028094
0.0285092
0.028866
0.029162
0.0293888
0.0295545
0.0296645
0.0297486
0.0298167
0.0299009
0.0300022
0.0301427
0.0302982
0.0304822
0.0306608
0.030859
0.0310426
0.0312511
0.0314442
0.0316693
0.0318637
0.0320789
0.0322418
0.0324266
0.0325496
0.0327114
0.032817
0.0329821
0.033083
0.0332525
0.0333417
0.0335014
0.033565
0.0337049
0.0337358
0.0338517
0.0338566
0.0339577
0.0339448
0.0340324
0.0340075
0.0340828
0.0340413
0.0340996
0.0340523
0.0340953
0.0340357
0.0340625
0.0339922
0.0339884
0.0338966
0.0338606
0.0337434
0.0336707
0.0335324
0.03343
0.0332741
0.0331487
0.032985
0.032846
0.0326792
0.0325329
0.032367
0.0322144
0.0320471
0.031889
0.0317196
0.031556
0.0313857
0.0312198
0.031051
0.0308885
0.0307273
0.0305731
0.0304246
0.0302849
0.030152
0.0300285
0.0299136
0.0298073
0.0297088
0.0296192
0.0295377
0.0294643
0.0293994
0.0293436
0.0292969
0.0292596
0.0292319
0.0292139
0.0292055
0.0292057
0.0292137
0.0292287
0.0292489
0.0292727
0.0292986
0.0293248
0.0293499
0.029373
0.0293931
0.0294097
0.0294229
0.0294334
0.0294416
0.0294481
0.0294538
0.0294596
0.0294655
0.0294715
0.0294777
0.0294839
0.0294896
0.0294943
0.0294976
0.0294992
0.029499
0.0294962
0.0294913
0.0294847
0.0294763
0.0294662
0.0294554
0.0294443
0.0294328
0.0294215
0.029411
0.0294014
0.0293927
0.0293853
0.0293792
0.0293741
0.02937
0.0293668
0.0293645
0.029363
0.0293624
0.0293628
0.0293641
0.0293665
0.02937
0.0293744
0.0293798
0.0293859
0.0293928
0.0294003
0.0294086
0.0294177
0.0294276
0.0294386
0.0294509
0.0294646
0.0294799
0.0294968
0.0295156
0.029536
0.0295581
0.0295817
0.0296065
0.029632
0.0296577
0.0296833
0.0297079
0.0297312
0.0297527
0.029772
0.0297889
0.0298033
0.0298152
0.0298248
0.0298325
0.0298384
0.0298427
0.0298457
0.0298471
0.0298467
0.029844
0.0298387
0.0298302
0.0298183
0.029803
0.0297849
0.0297648
0.0297439
0.0297238
0.0297057
0.0296908
0.0296799
0.0296729
0.0296695
0.0296686
0.029669
0.0296697
0.0296699
0.0296692
0.0296681
0.0296672
0.0296675
0.0296701
0.0296756
0.0296844
0.0296966
0.029712
0.0297303
0.0297516
0.0297755
0.029802
0.0298307
0.029861
0.0298919
0.0299222
0.0299509
0.0299769
0.0299994
0.0300177
0.0300317
0.0300411
0.0300461
0.030047
0.0300446
0.0300394
0.0300325
0.0300249
0.0300173
0.0300107
0.0300058
0.0300029
0.0300027
0.0300051
0.03001
0.030017
0.0300255
0.0300347
0.0300437
0.0300516
0.0300578
0.0300617
0.0300631
0.0300619
0.0300583
0.0300528
0.030046
0.0300388
0.0300321
0.0300269
0.0300239
0.0300238
0.0300272
0.0300342
0.0300449
0.0300589
0.0300755
0.030094
0.0301134
0.0301326
0.0301508
0.030167
0.0301809
0.0301923
0.0302014
0.0302085
0.0302144
0.0302198
0.0302253
0.0302315
0.0302386
0.0302469
0.0302561
0.030266
0.0302765
0.0302871
0.0302977
0.0303083
0.0303186
0.0303286
0.0303382
0.0303471
0.0303553
0.0303625
0.0303684
0.0303727
0.0303752
0.0303758
0.030374
0.0303698
0.0303629
0.0303532
0.0303408
0.0303258
0.0303087
0.0302898
0.03027
0.0302501
0.0302308
0.0302131
0.0301975
0.0301846
0.0301747
0.0301679
0.0301642
0.0301632
0.0301647
0.0301681
0.0301733
0.0301797
0.0301873
0.0301959
0.0302057
0.0302168
0.0302294
0.0302436
0.0302598
0.0302778
0.0302978
0.0303194
0.0303424
0.0303663
0.0303903
0.0304138
0.0304361
0.0304563
0.0304739
0.0304886
0.0305
0.0305083
0.0305137
0.030517
0.0305187
0.0305196
0.0305204
0.0305222
0.0305251
0.0305295
0.0305357
0.0305436
0.0305529
0.030563
0.0305734
0.0305734
0.04
0.0243872
0.0251224
0.0256203
0.0258517
0.0259211
0.026109
0.0265606
0.0268871
0.026299
0.0260321
0.0264842
0.0266363
0.0261159
0.0258915
0.0260892
0.0260489
0.0257198
0.0255876
0.0256054
0.0254724
0.0252722
0.0251868
0.0251196
0.0249721
0.02484
0.0247616
0.0246626
0.0245349
0.0244419
0.0243705
0.0242865
0.0242102
0.0241691
0.0241391
0.0241108
0.0241007
0.0241107
0.0241212
0.0241342
0.024158
0.0241885
0.0242175
0.0242533
0.024302
0.0243618
0.0244337
0.0245289
0.0246521
0.0248047
0.0249929
0.0252253
0.0255022
0.0258243
0.0261934
0.0266057
0.0270539
0.0275303
0.0280235
0.0285185
0.0290026
0.0294587
0.0298708
0.0302264
0.0305185
0.0307389
0.0308957
0.0310004
0.031075
0.0311367
0.031215
0.0313173
0.0314554
0.0316146
0.0317984
0.0319821
0.0321773
0.0323641
0.0325697
0.0327689
0.0329922
0.0331948
0.0334099
0.0335814
0.0337651
0.0338963
0.0340562
0.0341708
0.0343387
0.0344491
0.0346207
0.0347214
0.0348898
0.0349636
0.0351132
0.0351573
0.0352908
0.0353073
0.0354255
0.0354255
0.0355373
0.0355196
0.0356168
0.0355857
0.035668
0.0356244
0.0356929
0.0356375
0.0356856
0.0356175
0.0356354
0.0355431
0.0355274
0.0354119
0.0353572
0.0352199
0.0351352
0.0349805
0.034869
0.0347065
0.034579
0.0344111
0.0342722
0.0341051
0.0339565
0.0337857
0.0336298
0.0334574
0.0332922
0.0331165
0.0329475
0.0327707
0.0325995
0.0324277
0.0322621
0.0320986
0.0319438
0.0317946
0.0316534
0.0315195
0.0313944
0.0312765
0.0311672
0.0310666
0.0309749
0.0308925
0.0308206
0.0307589
0.030708
0.0306682
0.0306391
0.0306203
0.0306116
0.0306116
0.0306188
0.0306317
0.0306487
0.0306677
0.0306872
0.0307056
0.0307216
0.0307349
0.0307452
0.0307522
0.0307568
0.0307599
0.0307623
0.0307643
0.0307666
0.0307696
0.0307729
0.0307761
0.0307787
0.0307804
0.0307807
0.0307792
0.0307754
0.0307696
0.0307619
0.0307521
0.0307405
0.030728
0.0307147
0.0307004
0.0306861
0.0306722
0.0306586
0.0306456
0.0306338
0.0306233
0.0306139
0.0306057
0.0305988
0.0305929
0.0305878
0.0305835
0.03058
0.0305773
0.0305753
0.0305743
0.0305741
0.0305749
0.0305765
0.0305789
0.0305821
0.0305859
0.0305905
0.0305958
0.0306022
0.0306097
0.0306185
0.0306289
0.0306408
0.0306545
0.03067
0.0306872
0.0307062
0.0307268
0.0307488
0.0307719
0.0307958
0.03082
0.030844
0.0308672
0.030889
0.030909
0.0309266
0.0309416
0.0309538
0.0309634
0.0309705
0.0309755
0.0309785
0.03098
0.03098
0.0309784
0.030975
0.0309694
0.030961
0.0309494
0.0309345
0.0309164
0.0308957
0.0308732
0.0308503
0.0308284
0.0308089
0.0307929
0.0307809
0.0307729
0.0307684
0.0307663
0.0307655
0.0307649
0.0307638
0.0307618
0.0307593
0.030757
0.0307559
0.030757
0.0307609
0.0307679
0.030778
0.0307909
0.0308064
0.0308243
0.0308445
0.0308668
0.0308909
0.0309163
0.0309421
0.0309673
0.030991
0.031012
0.0310298
0.0310437
0.0310536
0.0310592
0.0310608
0.0310586
0.0310534
0.0310457
0.0310367
0.0310273
0.0310183
0.0310107
0.031005
0.0310017
0.0310011
0.0310032
0.0310079
0.0310147
0.0310229
0.0310317
0.0310403
0.0310479
0.0310538
0.0310575
0.0310587
0.0310572
0.0310533
0.0310474
0.0310403
0.0310327
0.0310256
0.0310198
0.031016
0.031015
0.0310172
0.0310228
0.0310317
0.0310437
0.0310582
0.0310745
0.0310917
0.0311089
0.031125
0.0311395
0.0311518
0.0311618
0.0311695
0.0311754
0.0311799
0.0311837
0.0311873
0.0311912
0.0311958
0.0312011
0.031207
0.0312134
0.03122
0.0312268
0.0312336
0.0312404
0.0312472
0.0312539
0.0312604
0.0312665
0.0312721
0.0312769
0.0312806
0.0312829
0.0312837
0.0312826
0.0312795
0.0312741
0.0312661
0.0312554
0.0312421
0.0312262
0.0312081
0.0311884
0.0311676
0.0311465
0.0311261
0.0311069
0.0310897
0.0310749
0.0310629
0.0310538
0.0310476
0.0310441
0.031043
0.0310441
0.0310469
0.0310513
0.0310571
0.031064
0.0310722
0.0310817
0.0310926
0.031105
0.0311191
0.031135
0.0311524
0.0311713
0.0311913
0.031212
0.0312329
0.0312531
0.031272
0.031289
0.0313034
0.0313148
0.0313231
0.0313285
0.0313311
0.0313317
0.031331
0.0313299
0.0313289
0.031329
0.0313308
0.0313346
0.0313405
0.0313484
0.0313577
0.0313684
0.0313799
0.0313799
0.04
0.0250426
0.0255906
0.0252872
0.0256671
0.0260706
0.0262523
0.026279
0.0262297
0.0263328
0.0267465
0.0266798
0.026332
0.026373
0.0266657
0.0265502
0.0262702
0.0262705
0.0263683
0.0262356
0.0260647
0.0260412
0.0260165
0.0258864
0.0257765
0.0257266
0.0256424
0.0255214
0.0254313
0.0253587
0.0252607
0.0251667
0.0251035
0.0250497
0.0249943
0.0249622
0.0249532
0.02495
0.0249527
0.0249725
0.0250005
0.0250291
0.0250637
0.0251103
0.025164
0.0252263
0.025306
0.0254084
0.0255334
0.0256885
0.025882
0.0261165
0.0263936
0.0267181
0.0270889
0.0275012
0.0279501
0.0284268
0.0289185
0.0294132
0.0298955
0.0303475
0.0307557
0.0311076
0.0313913
0.0316035
0.0317526
0.0318486
0.0319126
0.0319687
0.0320424
0.0321435
0.0322802
0.0324427
0.0326267
0.0328129
0.0330045
0.0331918
0.0333942
0.0335967
0.0338159
0.0340231
0.0342389
0.0344166
0.0345947
0.034732
0.0348933
0.0350142
0.0351791
0.0353004
0.0354765
0.0355855
0.035756
0.0358414
0.0360002
0.0360549
0.0361977
0.0362265
0.0363596
0.0363694
0.0364964
0.0364871