# vtk DataFile Version 3.0
LBM output step 1460
ASCII
DATASET STRUCTURED_POINTS
DIMENSIONS 400 100 1
ORIGIN 0 0 0
SPACING 1 1 1
POINT_DATA 40000
SCALARS velocity_magnitude double 1
LOOKUP_TABLE default
0
0
0
0
0
0
0
0
0
0
0
0
0
0
0
0
0
0
0
0
0
0
0
0
0
0
0
0
0
0
0
0
0
0
0
0
0
0
0
0
0
0
0
0
0
0
0
0
0
0
0
0
0
0
0
0
0
0
0
0
0
0
0
0
0
0
0
0
0
0
0
0
0
0
0
0
0
0
0
0
0
0
0
0
0
0
0
0
0
0
0
0
0
0
0
0
0
0
0
0
0
0
0
0
0
0
0
0
0
0
0
0
0
0
0
0
0
0
0
0
0
0
0
0
0
0
0
0
0
0
0
0
0
0
0
0
0
0
0
0
0
0
0
0
0
0
0
0
0
0
0
0
0
0
0
0
0
0
0
0
0
0
0
0
0
0
0
0
0
0
0
0
0
0
0
0
0
0
0
0
0
0
0
0
0
0
0
0
0
0
0
0
0
0
0
0
0
0
0
0
0
0
0
0
0
0
0
0
0
0
0
0
0
0
0
0
0
0
0
0
0
0
0
0
0
0
0
0
0
0
0
0
0
0
0
0
0
0
0
0
0
0
0
0
0
0
0
0
0
0
0
0
0
0
0
0
0
0
0
0
0
0
0
0
0
0
0
0
0
0
0
0
0
0
0
0
0
0
0
0
0
0
0
0
0
0
0
0
0
0
0
0
0
0
0
0
0
0
0
0
0
0
0
0
0
0
0
0
0
0
0
0
0
0
0
0
0
0
0
0
0
0
0
0
0
0
0
0
0
0
0
0
0
0
0
0
0
0
0
0
0
0
0
0
0
0
0
0
0
0
0
0
0
0
0
0
0
0
0
0
0
0
0
0
0
0
0
0
0
0
0
0
0
0
0
0
0
0
0
0
0
0
0
0
0
0
0
0
0
0
0
0
0
0
0
0
0
0
0
0
0.04
0.0175109
0.0116202
0.0149063
0.0180213
0.0179562
0.0146852
0.0136352
0.0135964
0.0136674
0.0132789
0.0132224
0.012955
0.0127841
0.0126699
0.0126989
0.0125689
0.0124695
0.0123775
0.0123103
0.0121653
0.0120485
0.0119192
0.0117875
0.0116323
0.0115129
0.0113959
0.0112931
0.0112007
0.011141
0.0110863
0.0110462
0.0110164
0.0110023
0.0109867
0.010978
0.0109705
0.0109638
0.010949
0.010932
0.0109074
0.0108754
0.010833
0.010785
0.0107288
0.0106676
0.0106023
0.0105372
0.010472
0.0104096
0.0103502
0.0102957
0.0102452
0.0101993
0.0101578
0.0101207
0.0100873
0.0100567
0.0100291
0.0100033
0.00997899
0.00995457
0.00993162
0.00990714
0.00988344
0.00985782
0.00983397
0.00980731
0.00978407
0.0097589
0.00973878
0.00971677
0.00970248
0.00968527
0.00967589
0.00966235
0.00965686
0.00964318
0.00963766
0.009623
0.00961643
0.0095981
0.00959099
0.00957197
0.0095638
0.00954198
0.00953375
0.00950943
0.00949687
0.00946703
0.00945105
0.00941563
0.00939407
0.00935435
0.0093308
0.00928829
0.00926265
0.00921921
0.00919256
0.00914702
0.00911764
0.00906938
0.00903541
0.00898251
0.00894295
0.00888512
0.00883919
0.00877703
0.0087262
0.00866113
0.00860671
0.00854106
0.00848518
0.00842033
0.00836455
0.00830221
0.00824749
0.00818829
0.00813577
0.00807985
0.00802885
0.00797557
0.00792521
0.00787196
0.0078199
0.00776507
0.00770948
0.00765099
0.00759197
0.00753111
0.0074698
0.00740851
0.00734885
0.00729064
0.00723492
0.0071826
0.00713398
0.00708865
0.00704708
0.00700958
0.00697552
0.00694458
0.00691726
0.00689346
0.00687266
0.00685495
0.00684061
0.00682914
0.00681986
0.00681256
0.00680675
0.00680151
0.00679624
0.00679085
0.00678531
0.00677979
0.00677503
0.00677199
0.00677148
0.00677419
0.0067806
0.00679058
0.00680351
0.00681866
0.0068351
0.00685179
0.0068681
0.00688394
0.00689934
0.00691449
0.00692987
0.00694579
0.00696214
0.00697859
0.00699463
0.00700955
0.00702256
0.00703306
0.00704061
0.00704489
0.00704576
0.00704327
0.00703752
0.00702871
0.00701721
0.00700357
0.00698832
0.00697209
0.00695549
0.00693908
0.00692321
0.00690819
0.00689428
0.0068817
0.00687068
0.00686145
0.00685425
0.00684919
0.00684621
0.00684504
0.00684516
0.00684585
0.00684628
0.00684574
0.00684377
0.00684026
0.0068355
0.00683002
0.00682441
0.00681915
0.00681459
0.00681105
0.00680896
0.00680901
0.006812
0.0068186
0.00682894
0.00684223
0.00685673
0.00687002
0.00687962
0.00688366
0.00688137
0.00687312
0.00686009
0.00684349
0.00682385
0.00680063
0.00677233
0.00673712
0.00669377
0.00664242
0.00658502
0.00652501
0.00646654
0.00641333
0.00636759
0.00632947
0.00629696
0.00626651
0.00623399
0.00619582
0.00614982
0.00609581
0.00603561
0.00597266
0.00591141
0.00585656
0.00581238
0.00578224
0.00576833
0.00577161
0.00579191
0.00582809
0.00587833
0.00594031
0.00601143
0.00608903
0.00617046
0.00625325
0.00633513
0.00641419
0.00648885
0.00655794
0.00662064
0.0066765
0.00672536
0.00676726
0.00680239
0.00683108
0.00685371
0.0068708
0.00688292
0.00689079
0.00689522
0.00689711
0.00689737
0.00689691
0.00689649
0.00689678
0.00689819
0.00690095
0.00690503
0.00691018
0.00691596
0.00692177
0.00692689
0.0069306
0.00693223
0.0069312
0.00692714
0.00691991
0.00690961
0.00689657
0.00688137
0.0068647
0.00684736
0.00683018
0.00681389
0.00679911
0.00678629
0.00677569
0.00676735
0.00676118
0.00675699
0.00675452
0.00675356
0.00675397
0.00675568
0.00675876
0.00676333
0.00676956
0.0067776
0.00678757
0.00679949
0.00681334
0.00682896
0.00684616
0.00686468
0.00688425
0.00690453
0.00692518
0.00694582
0.00696602
0.00698536
0.00700337
0.00701959
0.00703361
0.00704504
0.0070536
0.00705909
0.00706141
0.00706057
0.00705665
0.00704984
0.00704039
0.00702862
0.0070149
0.00699962
0.00698323
0.00696619
0.006949
0.00693212
0.00691603
0.00690115
0.00688782
0.00687631
0.00686676
0.0068592
0.00685354
0.00684957
0.006847
0.00684546
0.00684453
0.00684378
0.00684281
0.00684132
0.00683912
0.00683619
0.00683272
0.00682912
0.00682594
0.00682386
0.00682358
0.00682576
0.00683085
0.0068391
0.00685044
0.00686448
0.00688056
0.00689776
0.00691503
0.00693131
0.00694565
0.00695728
0.00696578
0.006971
0.00697317
0.00697279
0.00697059
0.00696746
0.0069643
0.00696206
0.00696152
0.00696341
0.0069682
0.00697621
0.00698747
0.00700184
0.00701884
0.00703782
0.00705783
0.00707786
0.00709659
0.00711276
0.00712538
0.00713408
0.00713632
0.00713121
0.00713121
0.04
0.0273301
0.0295538
0.0270264
0.0195965
0.01815
0.0211904
0.0221054
0.0204268
0.0195442
0.0195706
0.019465
0.0191341
0.0190669
0.0189404
0.0187149
0.0185566
0.0185257
0.0183924
0.0182176
0.0180814
0.0179668
0.0177928
0.0176295
0.0174938
0.017363
0.0172246
0.0171244
0.0170506
0.0169877
0.0169384
0.0169192
0.0169118
0.0169107
0.01692
0.016941
0.0169598
0.0169761
0.0169913
0.0170017
0.0170005
0.0169907
0.0169724
0.0169443
0.0169061
0.0168628
0.016816
0.0167672
0.0167189
0.0166743
0.016634
0.0165986
0.016569
0.0165458
0.0165289
0.0165174
0.0165118
0.0165113
0.0165156
0.0165228
0.0165346
0.0165479
0.0165643
0.0165809
0.0166012
0.0166198
0.0166425
0.0166639
0.0166905
0.0167144
0.0167471
0.0167776
0.0168169
0.0168527
0.0169014
0.0169421
0.0169936
0.0170364
0.0170921
0.0171316
0.0171849
0.0172237
0.0172775
0.0173099
0.0173614
0.0173922
0.0174405
0.017461
0.0175034
0.0175164
0.0175484
0.017547
0.0175703
0.0175582
0.01757
0.0175458
0.0175497
0.017515
0.017508
0.017462
0.0174442
0.017385
0.0173536
0.0172806
0.0172344
0.0171474
0.0170864
0.0169863
0.0169124
0.0168023
0.0167167
0.0166001
0.0165074
0.0163861
0.0162876
0.0161671
0.0160656
0.0159452
0.0158439
0.0157281
0.0156259
0.0155133
0.0154134
0.0153036
0.015202
0.0150945
0.0149931
0.0148856
0.0147831
0.0146789
0.0145785
0.0144778
0.0143831
0.0142915
0.0142051
0.0141233
0.0140489
0.0139796
0.0139162
0.0138587
0.0138075
0.0137611
0.0137199
0.0136841
0.0136534
0.013627
0.0136052
0.0135878
0.013574
0.0135629
0.0135541
0.0135469
0.0135404
0.0135341
0.0135281
0.0135226
0.0135181
0.0135156
0.0135159
0.0135197
0.0135273
0.0135388
0.0135536
0.0135708
0.0135894
0.0136086
0.0136276
0.013646
0.0136639
0.0136816
0.0136994
0.0137174
0.0137357
0.0137539
0.0137715
0.0137876
0.0138017
0.0138129
0.0138208
0.0138252
0.0138259
0.0138228
0.0138161
0.0138061
0.0137931
0.0137775
0.01376
0.0137413
0.0137219
0.0137024
0.0136832
0.0136646
0.0136469
0.0136304
0.0136152
0.0136015
0.0135896
0.0135795
0.0135711
0.0135642
0.0135584
0.0135529
0.0135472
0.0135405
0.0135327
0.0135235
0.0135132
0.0135023
0.0134914
0.0134811
0.0134717
0.0134637
0.0134575
0.0134538
0.0134532
0.013456
0.0134621
0.0134705
0.0134796
0.0134869
0.0134903
0.013488
0.0134793
0.0134646
0.0134449
0.0134212
0.0133941
0.013363
0.0133269
0.0132842
0.0132341
0.013177
0.0131148
0.0130509
0.0129892
0.0129331
0.0128846
0.0128437
0.0128085
0.0127758
0.0127416
0.0127027
0.0126573
0.0126055
0.0125493
0.0124922
0.0124388
0.0123936
0.0123609
0.0123438
0.0123444
0.0123633
0.0124
0.012453
0.0125203
0.0125992
0.0126868
0.0127802
0.0128766
0.0129734
0.0130681
0.0131588
0.013244
0.0133223
0.0133932
0.0134562
0.0135112
0.0135583
0.0135978
0.0136303
0.0136562
0.0136761
0.0136907
0.0137008
0.0137074
0.0137114
0.0137136
0.0137151
0.0137166
0.0137187
0.0137217
0.013726
0.0137313
0.0137375
0.013744
0.0137502
0.0137555
0.0137591
0.0137605
0.013759
0.0137543
0.0137465
0.0137356
0.0137222
0.0137067
0.0136901
0.0136731
0.0136567
0.0136415
0.0136283
0.0136176
0.0136094
0.0136039
0.013601
0.0136004
0.0136018
0.013605
0.0136098
0.013616
0.0136238
0.0136332
0.0136443
0.0136572
0.0136722
0.0136891
0.0137079
0.0137285
0.0137506
0.013774
0.0137983
0.0138231
0.0138481
0.0138727
0.0138965
0.013919
0.0139396
0.0139579
0.0139734
0.0139857
0.0139945
0.0139997
0.0140012
0.0139991
0.0139936
0.013985
0.0139736
0.0139598
0.0139441
0.013927
0.013909
0.0138906
0.0138722
0.0138544
0.0138378
0.0138226
0.0138093
0.0137982
0.0137894
0.013783
0.0137787
0.0137765
0.013776
0.0137768
0.0137786
0.0137808
0.013783
0.013785
0.0137866
0.0137877
0.0137886
0.0137895
0.0137912
0.0137941
0.0137989
0.0138062
0.0138164
0.0138297
0.0138458
0.0138643
0.0138845
0.0139055
0.0139262
0.0139456
0.0139627
0.0139768
0.0139877
0.0139951
0.0139994
0.0140012
0.0140011
0.0140002
0.0139994
0.0139995
0.0140014
0.0140057
0.0140128
0.014023
0.0140362
0.0140523
0.0140706
0.0140905
0.0141109
0.0141307
0.0141488
0.014164
0.0141748
0.0141802
0.01418
0.0141745
0.0141745
0.04
0.0277807
0.0262873
0.0236086
0.0246927
0.0267408
0.0258926
0.0241411
0.0242142
0.024775
0.0243042
0.0236455
0.0234816
0.0234375
0.0231622
0.0229678
0.0228651
0.0227157
0.0225098
0.0223845
0.022252
0.0220724
0.0218873
0.0217471
0.0215933
0.0214372
0.0213088
0.021216
0.021128
0.021063
0.021028
0.0210141
0.0210073
0.0210204
0.0210487
0.0210829
0.0211181
0.0211594
0.0211987
0.0212308
0.0212554
0.021274
0.0212814
0.0212784
0.0212677
0.0212517
0.0212305
0.0212081
0.0211873
0.0211698
0.0211564
0.0211488
0.0211477
0.0211532
0.021165
0.0211828
0.0212073
0.021237
0.0212715
0.0213103
0.0213542
0.0214
0.0214496
0.0215014
0.0215568
0.0216118
0.0216722
0.0217325
0.0217978
0.0218625
0.0219364
0.0220081
0.0220892
0.0221688
0.0222596
0.0223431
0.0224394
0.0225275
0.0226265
0.0227118
0.0228134
0.0228984
0.0229975
0.0230777
0.0231784
0.0232535
0.0233472
0.023414
0.0235032
0.0235566
0.0236328
0.0236729
0.023739
0.0237618
0.023814
0.0238227
0.0238631
0.023854
0.0238801
0.023855
0.0238652
0.0238194
0.0238122
0.0237465
0.0237185
0.0236314
0.023585
0.023478
0.0234115
0.0232888
0.0232072
0.0230698
0.0229744
0.0228296
0.0227232
0.0225715
0.0224588
0.0223058
0.0221863
0.022034
0.0219128
0.0217619
0.0216374
0.0214905
0.0213642
0.0212187
0.0210912
0.0209498
0.0208215
0.0206843
0.0205599
0.0204306
0.0203121
0.0201937
0.0200863
0.0199808
0.0198854
0.0197947
0.0197129
0.0196359
0.019567
0.0195036
0.0194471
0.0193958
0.0193511
0.0193118
0.019278
0.019249
0.0192246
0.0192037
0.0191858
0.0191699
0.0191554
0.0191419
0.0191292
0.0191176
0.0191078
0.0191007
0.0190968
0.0190968
0.0191012
0.0191096
0.0191214
0.0191357
0.0191515
0.0191679
0.0191841
0.0192001
0.0192157
0.0192313
0.0192472
0.0192636
0.0192805
0.0192974
0.0193139
0.0193292
0.0193425
0.0193533
0.019361
0.0193655
0.0193666
0.0193643
0.0193587
0.01935
0.0193386
0.0193247
0.019309
0.019292
0.0192743
0.0192565
0.0192389
0.0192219
0.0192058
0.0191909
0.0191773
0.0191653
0.0191549
0.0191462
0.0191389
0.0191328
0.0191277
0.0191228
0.0191179
0.0191123
0.0191058
0.0190981
0.0190893
0.0190797
0.0190699
0.0190604
0.0190519
0.0190449
0.0190401
0.0190378
0.0190387
0.0190427
0.0190496
0.0190585
0.019068
0.0190762
0.0190812
0.0190816
0.0190764
0.0190658
0.0190502
0.0190304
0.0190067
0.0189788
0.0189461
0.0189074
0.0188624
0.0188113
0.0187559
0.0186989
0.0186436
0.0185931
0.0185492
0.0185121
0.0184805
0.0184513
0.0184214
0.0183878
0.0183484
0.0183033
0.018254
0.0182035
0.018156
0.0181157
0.0180866
0.0180719
0.0180736
0.0180926
0.0181285
0.0181803
0.0182459
0.0183228
0.0184084
0.0184998
0.0185943
0.0186893
0.0187826
0.0188722
0.0189564
0.0190342
0.0191048
0.0191677
0.0192228
0.0192702
0.0193103
0.0193434
0.0193702
0.0193912
0.0194071
0.0194189
0.0194272
0.0194332
0.0194375
0.0194412
0.0194448
0.019449
0.0194541
0.0194603
0.0194674
0.0194753
0.0194835
0.0194914
0.0194984
0.0195038
0.0195071
0.0195076
0.0195053
0.0194998
0.0194915
0.0194807
0.019468
0.019454
0.0194396
0.0194255
0.0194126
0.0194013
0.0193922
0.0193855
0.0193813
0.0193796
0.01938
0.0193825
0.0193868
0.0193927
0.0194001
0.0194091
0.0194196
0.0194318
0.0194457
0.0194615
0.0194791
0.0194985
0.0195196
0.0195419
0.0195654
0.0195897
0.0196144
0.0196391
0.0196635
0.0196871
0.0197095
0.0197302
0.0197488
0.0197649
0.0197781
0.0197882
0.0197951
0.0197985
0.0197986
0.0197956
0.0197895
0.0197808
0.0197698
0.019757
0.0197427
0.0197274
0.0197116
0.0196959
0.0196807
0.0196666
0.0196538
0.0196429
0.019634
0.0196273
0.0196229
0.0196206
0.0196202
0.0196215
0.019624
0.0196273
0.019631
0.0196348
0.0196384
0.0196415
0.0196442
0.0196467
0.0196493
0.0196525
0.019657
0.0196632
0.0196717
0.0196828
0.0196968
0.0197135
0.0197325
0.0197531
0.0197744
0.0197956
0.0198156
0.0198336
0.0198488
0.0198608
0.0198696
0.0198753
0.0198785
0.0198798
0.0198801
0.0198803
0.0198812
0.0198837
0.0198884
0.0198957
0.019906
0.0199192
0.0199351
0.0199531
0.0199726
0.0199927
0.0200122
0.0200299
0.0200449
0.0200561
0.0200622
0.0200631
0.0200585
0.0200585
0.04
0.0295397
0.0309065
0.0311523
0.0310728
0.0285676
0.0269375
0.0278869
0.0287079
0.0276201
0.0266543
0.0268214
0.0269344
0.0264783
0.0261268
0.026108
0.025971
0.0257176
0.0255595
0.0254601
0.0252572
0.0250557
0.0249085
0.0247557
0.0245614
0.0244092
0.0242936
0.0241817
0.0240786
0.0240222
0.023987
0.023961
0.0239545
0.0239769
0.0240061
0.024042
0.0240893
0.0241449
0.024195
0.0242433
0.0242894
0.0243283
0.0243552
0.0243753
0.0243881
0.0243938
0.0243942
0.0243946
0.0243958
0.0243996
0.0244075
0.0244217
0.0244423
0.0244694
0.0245025
0.0245426
0.0245891
0.0246404
0.0246969
0.0247588
0.0248251
0.0248938
0.0249675
0.025044
0.0251236
0.0252049
0.0252914
0.0253784
0.0254706
0.0255643
0.0256648
0.0257648
0.0258744
0.0259828
0.0260996
0.0262136
0.0263387
0.0264557
0.026583
0.0267025
0.0268341
0.0269506
0.0270819
0.0271989
0.02733
0.0274384
0.027566
0.0276692
0.0277885
0.0278761
0.027987
0.0280622
0.0281588
0.0282157
0.0283019
0.0283424
0.028413
0.028435
0.0284922
0.0284934
0.028533
0.0285121
0.0285323
0.0284867
0.0284863
0.0284152
0.0283929
0.0282981
0.0282549
0.0281374
0.0280762
0.0279405
0.0278615
0.0277117
0.0276199
0.0274582
0.0273542
0.0271874
0.027074
0.026902
0.0267821
0.0266102
0.0264826
0.0263107
0.0261791
0.0260089
0.0258717
0.0257052
0.0255671
0.0254055
0.0252682
0.0251162
0.0249849
0.0248441
0.024722
0.0245963
0.0244859
0.0243749
0.0242775
0.0241822
0.0240976
0.0240164
0.023945
0.0238781
0.023819
0.023765
0.0237184
0.0236766
0.0236401
0.0236074
0.0235788
0.0235524
0.023528
0.0235051
0.0234841
0.0234647
0.0234477
0.0234342
0.0234248
0.0234198
0.0234195
0.0234238
0.0234317
0.0234424
0.0234549
0.0234683
0.0234817
0.0234952
0.0235088
0.0235225
0.0235369
0.0235521
0.0235681
0.0235845
0.0236006
0.0236158
0.0236293
0.0236404
0.0236489
0.0236545
0.023657
0.0236565
0.0236532
0.0236469
0.0236381
0.023627
0.0236142
0.0236
0.0235851
0.0235701
0.0235553
0.0235411
0.0235279
0.023516
0.0235055
0.0234966
0.0234893
0.0234835
0.0234788
0.0234751
0.0234721
0.0234695
0.0234668
0.0234639
0.0234604
0.023456
0.0234505
0.023444
0.0234371
0.0234304
0.0234246
0.0234206
0.023419
0.0234202
0.0234244
0.0234314
0.0234405
0.023451
0.0234616
0.0234711
0.0234779
0.0234809
0.0234791
0.023472
0.0234596
0.0234421
0.0234197
0.0233924
0.02336
0.0233222
0.0232789
0.0232306
0.0231786
0.023125
0.0230725
0.0230233
0.0229794
0.022941
0.0229073
0.0228763
0.0228451
0.0228112
0.022773
0.0227301
0.0226836
0.0226363
0.0225917
0.0225538
0.0225263
0.0225124
0.0225143
0.0225328
0.022568
0.0226188
0.0226833
0.0227592
0.022844
0.0229349
0.0230292
0.0231243
0.0232179
0.023308
0.023393
0.0234718
0.0235435
0.0236076
0.0236639
0.0237126
0.023754
0.0237885
0.0238166
0.0238391
0.0238567
0.0238702
0.0238806
0.0238886
0.0238952
0.0239011
0.0239069
0.0239131
0.0239201
0.023928
0.0239366
0.0239458
0.0239552
0.0239641
0.023972
0.0239783
0.0239825
0.023984
0.0239827
0.0239784
0.0239714
0.0239619
0.0239505
0.0239378
0.0239246
0.0239116
0.0238995
0.0238889
0.0238803
0.0238739
0.0238699
0.0238683
0.023869
0.0238717
0.0238764
0.0238829
0.023891
0.0239007
0.0239121
0.0239252
0.0239401
0.0239568
0.0239752
0.0239954
0.024017
0.02404
0.024064
0.0240886
0.0241136
0.0241385
0.024163
0.0241866
0.024209
0.0242298
0.0242487
0.0242651
0.0242789
0.0242897
0.0242974
0.0243019
0.0243031
0.0243012
0.0242963
0.0242887
0.0242788
0.024267
0.0242537
0.0242393
0.0242244
0.0242094
0.0241949
0.0241813
0.0241691
0.0241586
0.0241501
0.0241438
0.0241397
0.0241376
0.0241374
0.0241387
0.0241413
0.0241447
0.0241485
0.0241524
0.024156
0.0241594
0.0241624
0.0241653
0.0241684
0.0241722
0.0241771
0.0241838
0.0241926
0.0242039
0.0242178
0.0242341
0.0242526
0.0242727
0.0242935
0.0243141
0.0243337
0.0243514
0.0243665
0.0243786
0.0243877
0.0243937
0.0243973
0.0243989
0.0243994
0.0243997
0.0244006
0.0244029
0.0244073
0.0244142
0.024424
0.0244366
0.0244518
0.0244692
0.0244879
0.0245071
0.0245259
0.024543
0.0245572
0.0245678
0.024574
0.0245754
0.0245715
0.0245715
0.04
0.030635
0.0317844
0.0304713
0.0297812
0.0300132
0.0311277
0.0305265
0.0290662
0.0289031
0.0296498
0.0294402
0.0286725
0.028489
0.0286502
0.0284684
0.0281428
0.0280383
0.0279616
0.0277563
0.0275577
0.027438
0.0272708
0.0270683
0.0269081
0.0267837
0.0266375
0.0265118
0.0264309
0.0263712
0.0263129
0.0262858
0.0262855
0.0262948
0.0263117
0.0263506
0.0263985
0.0264476
0.0265002
0.0265592
0.0266126
0.0266593
0.0267012
0.0267377
0.0267641
0.0267849
0.0268028
0.0268189
0.0268342
0.0268527
0.0268754
0.0269033
0.0269368
0.0269767
0.0270229
0.0270755
0.0271332
0.027196
0.0272646
0.0273377
0.0274143
0.0274954
0.0275814
0.0276695
0.0277615
0.0278572
0.0279567
0.0280577
0.0281643
0.0282732
0.028387
0.0285029
0.028626
0.0287489
0.0288794
0.0290099
0.029147
0.0292804
0.029424
0.029562
0.0297072
0.0298454
0.0299962
0.0301335
0.0302807
0.0304151
0.0305627
0.0306872
0.0308252
0.0309411
0.0310721
0.0311711
0.0312894
0.0313753
0.0314824
0.0315486
0.0316421
0.0316918
0.031771
0.0317977
0.0318608
0.0318657
0.0319092
0.0318867
0.0319112
0.0318621
0.0318634
0.0317872
0.03177
0.0316673
0.0316286
0.0315052
0.0314501
0.0313046
0.0312338
0.0310753
0.0309894
0.0308171
0.0307211
0.0305413
0.030432
0.0302473
0.0301301
0.0299416
0.0298143
0.0296269
0.0294927
0.0293062
0.0291675
0.0289875
0.0288474
0.0286756
0.0285391
0.0283803
0.0282501
0.0281055
0.0279855
0.0278568
0.0277473
0.0276339
0.0275368
0.0274388
0.0273535
0.0272702
0.0271982
0.0271292
0.0270691
0.0270133
0.0269646
0.026919
0.0268781
0.0268398
0.0268046
0.0267707
0.0267393
0.0267105
0.026685
0.026663
0.0266461
0.0266344
0.0266277
0.0266258
0.0266283
0.0266336
0.0266408
0.0266493
0.0266584
0.0266674
0.0266768
0.026687
0.026698
0.0267101
0.0267233
0.0267372
0.0267512
0.0267645
0.0267764
0.0267865
0.0267942
0.0267993
0.0268019
0.0268019
0.0267994
0.0267944
0.0267871
0.0267776
0.0267665
0.0267541
0.0267409
0.0267275
0.0267143
0.0267017
0.0266902
0.0266799
0.026671
0.0266637
0.0266579
0.0266532
0.0266496
0.0266466
0.026644
0.0266418
0.0266396
0.0266374
0.0266349
0.0266316
0.0266275
0.0266223
0.0266165
0.0266106
0.0266057
0.0266026
0.0266022
0.0266047
0.0266101
0.0266177
0.0266269
0.0266367
0.0266463
0.0266547
0.0266611
0.0266644
0.0266637
0.0266583
0.0266474
0.0266307
0.0266083
0.0265802
0.0265469
0.0265087
0.0264661
0.0264198
0.0263706
0.0263202
0.0262703
0.0262225
0.0261783
0.0261383
0.0261022
0.0260686
0.0260356
0.0260013
0.0259642
0.0259237
0.0258809
0.0258377
0.0257971
0.0257626
0.0257377
0.0257254
0.0257279
0.0257461
0.0257803
0.0258295
0.0258922
0.0259663
0.0260491
0.0261382
0.0262309
0.0263246
0.0264171
0.0265064
0.0265908
0.0266691
0.0267405
0.0268045
0.0268608
0.0269096
0.0269511
0.0269859
0.0270145
0.0270376
0.027056
0.0270706
0.0270823
0.0270918
0.0271
0.0271075
0.0271149
0.0271226
0.0271309
0.0271398
0.0271493
0.0271591
0.0271689
0.027178
0.0271861
0.0271926
0.027197
0.0271988
0.027198
0.0271944
0.0271881
0.0271796
0.0271692
0.0271576
0.0271455
0.0271334
0.027122
0.0271119
0.0271035
0.0270972
0.0270931
0.0270912
0.0270917
0.0270943
0.0270989
0.0271053
0.0271135
0.0271235
0.0271351
0.0271484
0.0271634
0.0271802
0.0271986
0.0272186
0.02724
0.0272626
0.027286
0.02731
0.0273341
0.027358
0.0273814
0.0274039
0.0274251
0.0274448
0.0274626
0.0274782
0.0274912
0.0275015
0.0275089
0.0275131
0.0275143
0.0275124
0.0275076
0.0275002
0.0274904
0.0274786
0.0274653
0.0274509
0.0274359
0.0274207
0.027406
0.0273921
0.0273795
0.0273686
0.0273597
0.0273528
0.027348
0.0273453
0.0273444
0.027345
0.0273467
0.0273493
0.0273522
0.0273553
0.0273583
0.027361
0.0273636
0.0273661
0.027369
0.0273725
0.0273772
0.0273834
0.0273917
0.0274022
0.027415
0.0274301
0.0274471
0.0274655
0.0274845
0.0275034
0.0275214
0.0275377
0.0275516
0.0275627
0.0275709
0.0275763
0.0275791
0.0275801
0.0275798
0.0275792
0.027579
0.0275802
0.0275832
0.0275887
0.027597
0.027608
0.0276215
0.0276371
0.0276541
0.0276715
0.0276885
0.027704
0.027717
0.0277266
0.0277321
0.0277329
0.0277288
0.0277288
0.04
0.0286251
0.0291617
0.0304261
0.0312314
0.0311342
0.0308369
0.0302661
0.030636
0.0310686
0.0306065
0.0299551
0.0301269
0.0303949
0.0301111
0.0297541
0.0297726
0.0297988
0.029591
0.0293983
0.0293274
0.0292079
0.0290087
0.0288578
0.028742
0.0285952
0.0284497
0.0283588
0.0282833
0.028205
0.0281522
0.0281348
0.028122
0.0281174
0.0281347
0.028168
0.0282016
0.0282442
0.0282977
0.0283534
0.0284049
0.028458
0.0285088
0.0285523
0.0285889
0.028623
0.0286528
0.0286798
0.0287069
0.0287366
0.0287691
0.0288061
0.028848
0.0288957
0.0289491
0.0290076
0.0290704
0.0291389
0.0292121
0.0292883
0.0293691
0.029455
0.0295441
0.0296362
0.0297337
0.0298346
0.0299383
0.0300458
0.0301583
0.0302728
0.030392
0.0305145
0.0306415
0.0307703
0.0309054
0.0310407
0.0311813
0.0313233
0.0314717
0.0316165
0.0317695
0.0319208
0.0320776
0.0322262
0.032385
0.0325345
0.0326885
0.0328281
0.0329791
0.0331115
0.0332506
0.0333686
0.0335013
0.0336058
0.0337235
0.033812
0.0339203
0.0339896
0.0340824
0.0341329
0.0342109
0.0342366
0.0342978
0.0342984
0.0343393
0.0343122
0.0343346
0.0342782
0.0342801
0.0341977
0.034181
0.0340712
0.0340382
0.0339061
0.0338552
0.0337034
0.0336394
0.0334696
0.0333907
0.0332097
0.0331177
0.0329251
0.0328213
0.0326236
0.032507
0.0323054
0.0321802
0.0319795
0.0318458
0.0316498
0.0315133
0.0313254
0.0311883
0.0310127
0.0308799
0.0307181
0.0305913
0.0304452
0.0303273
0.0301961
0.0300876
0.0299724
0.029875
0.0297747
0.0296892
0.0296046
0.0295314
0.02946
0.0293979
0.0293382
0.0292843
0.0292319
0.029184
0.0291377
0.0290945
0.0290539
0.029018
0.0289862
0.0289597
0.028939
0.0289243
0.0289143
0.0289088
0.0289067
0.0289068
0.028908
0.0289102
0.0289129
0.028916
0.0289201
0.0289256
0.0289324
0.0289406
0.0289498
0.0289594
0.0289688
0.0289771
0.0289838
0.0289887
0.0289916
0.0289923
0.028991
0.0289876
0.0289822
0.0289747
0.0289653
0.0289543
0.0289421
0.0289291
0.0289158
0.0289027
0.0288901
0.0288786
0.0288683
0.0288594
0.0288521
0.0288461
0.0288411
0.0288369
0.028833
0.0288295
0.0288262
0.0288231
0.0288201
0.0288171
0.0288137
0.0288094
0.028804
0.0287979
0.0287917
0.0287865
0.0287832
0.0287826
0.028785
0.02879
0.0287967
0.0288043
0.0288119
0.0288191
0.0288254
0.0288303
0.0288332
0.028833
0.0288283
0.028818
0.0288012
0.0287778
0.0287483
0.0287135
0.0286745
0.0286323
0.0285876
0.028541
0.0284932
0.0284451
0.0283976
0.028352
0.028309
0.0282691
0.0282318
0.028196
0.0281604
0.0281238
0.0280856
0.0280461
0.0280067
0.0279697
0.0279382
0.0279151
0.0279034
0.0279051
0.0279216
0.0279532
0.0279992
0.0280584
0.0281287
0.028208
0.0282937
0.0283833
0.0284742
0.0285643
0.0286514
0.0287341
0.0288109
0.028881
0.0289439
0.0289992
0.0290472
0.029088
0.0291222
0.0291504
0.0291733
0.0291918
0.0292067
0.0292189
0.0292291
0.0292381
0.0292464
0.0292546
0.0292629
0.0292716
0.0292807
0.0292902
0.0292997
0.0293089
0.0293175
0.0293249
0.0293307
0.0293345
0.029336
0.0293349
0.0293314
0.0293254
0.0293173
0.0293075
0.0292965
0.0292848
0.0292732
0.029262
0.0292518
0.029243
0.029236
0.0292311
0.0292283
0.0292277
0.0292293
0.0292329
0.0292385
0.029246
0.0292552
0.0292662
0.0292788
0.0292932
0.0293091
0.0293266
0.0293456
0.0293659
0.0293872
0.0294092
0.0294316
0.029454
0.0294762
0.0294977
0.0295183
0.0295376
0.0295555
0.0295715
0.0295856
0.0295974
0.0296066
0.0296131
0.0296167
0.0296174
0.0296151
0.02961
0.0296022
0.029592
0.0295798
0.0295659
0.0295508
0.0295351
0.0295191
0.0295034
0.0294885
0.0294749
0.0294629
0.0294527
0.0294446
0.0294385
0.0294344
0.029432
0.0294311
0.0294313
0.0294323
0.0294337
0.0294353
0.0294369
0.0294384
0.0294399
0.0294414
0.0294434
0.029446
0.0294498
0.029455
0.029462
0.029471
0.029482
0.029495
0.0295096
0.0295255
0.029542
0.0295585
0.0295742
0.0295883
0.0296004
0.0296099
0.0296166
0.0296206
0.0296222
0.0296218
0.0296201
0.029618
0.0296161
0.0296153
0.0296164
0.0296198
0.0296258
0.0296346
0.0296458
0.0296591
0.0296738
0.029689
0.0297039
0.0297174
0.0297287
0.0297371
0.0297418
0.0297424
0.0297384
0.0297384
0.04
0.0285775
0.029318
0.0298861
0.0301404
0.0302519
0.0304789
0.0309624
0.0313167
0.0307569
0.0305157
0.0310261
0.0312602
0.0307945
0.0306074
0.0308801
0.0309367
0.0306608
0.0305524
0.0306126
0.0305253
0.0303308
0.0302313
0.030163
0.0300178
0.029877
0.0298001
0.029725
0.0296302
0.0295724
0.029549
0.0295212
0.029497
0.0295031
0.0295206
0.0295352
0.0295601
0.0296024
0.0296457
0.029689
0.0297399
0.0297947
0.0298431
0.0298889
0.0299344
0.029976
0.030012
0.0300479
0.0300846
0.0301215
0.0301606
0.0302041
0.0302518
0.0303043
0.0303611
0.030422
0.0304876
0.0305575
0.0306301
0.0307067
0.0307885
0.0308734
0.0309613
0.0310547
0.0311526
0.0312528
0.0313576
0.0314674
0.0315802
0.0316957
0.0318163
0.0319396
0.0320663
0.0321961
0.0323301
0.0324654
0.0326068
0.0327502
0.0328974
0.0330468
0.0332041
0.033359
0.0335178
0.0336769
0.0338413
0.033996
0.0341548
0.0343081
0.034464
0.0346042
0.034751
0.0348848
0.0350226
0.0351393
0.0352666
0.0353717
0.0354867
0.0355722
0.0356746
0.0357429
0.0358303
0.0358745
0.0359466
0.0359674
0.0360205
0.0360127
0.0360496
0.0360137
0.0360299
0.035966
0.0359675
0.0358739
0.0358565
0.0357401
0.0357078
0.0355641
0.0355178
0.0353565
0.0352933
0.0351126
0.0350379
0.0348435
0.0347521
0.0345482
0.0344455
0.0342343
0.0341187
0.0339074
0.033783
0.0335736
0.0334428
0.0332418
0.0331083
0.0329175
0.0327846
0.032608
0.0324782
0.0323154
0.0321912
0.0320443
0.031927
0.0317948
0.0316872
0.0315714
0.031474
0.0313734
0.0312883
0.0312024
0.0311271
0.0310527
0.0309865
0.0309205
0.0308595
0.0308002
0.0307455
0.0306929
0.0306455
0.0306032
0.030567
0.0305364
0.0305123
0.0304938
0.0304797
0.030469
0.0304611
0.0304545
0.0304487
0.0304438
0.0304398
0.0304368
0.0304354
0.0304357
0.0304377
0.030441
0.0304449
0.030449
0.0304525
0.0304549
0.0304558
0.0304552
0.030453
0.0304493
0.030444
0.030437
0.0304283
0.030418
0.0304063
0.0303934
0.0303798
0.0303658
0.030352
0.0303386
0.0303262
0.030315
0.0303051
0.0302967
0.0302896
0.0302834
0.0302777
0.0302723
0.0302671
0.030262
0.030257
0.0302524
0.0302478
0.030243
0.0302375
0.0302312
0.0302241
0.0302169
0.0302106
0.0302063
0.0302046
0.0302058
0.0302093
0.030214
0.030219
0.0302237
0.0302276
0.0302309
0.0302334
0.0302348
0.0302338
0.0302287
0.0302179
0.0302001
0.030175
0.0301433
0.0301062
0.0300657
0.030023
0.029979
0.0299341
0.029888
0.0298409
0.029793
0.0297452
0.0296984
0.0296536
0.0296113
0.0295714
0.0295333
0.029496
0.0294589
0.0294219
0.0293857
0.029352
0.0293231
0.0293017
0.0292904
0.0292912
0.0293055
0.029334
0.0293763
0.0294313
0.0294974
0.0295723
0.0296538
0.0297395
0.0298268
0.0299136
0.0299978
0.0300778
0.0301522
0.0302202
0.0302811
0.0303346
0.0303809
0.0304202
0.030453
0.03048
0.030502
0.0305197
0.0305342
0.0305461
0.0305562
0.0305652
0.0305735
0.0305817
0.0305898
0.0305982
0.0306067
0.0306153
0.0306238
0.0306318
0.030639
0.030645
0.0306494
0.0306519
0.0306522
0.0306503
0.030646
0.0306396
0.0306314
0.0306216
0.0306107
0.0305991
0.0305874
0.0305761
0.0305655
0.0305561
0.0305482
0.0305421
0.0305379
0.0305359
0.0305361
0.0305383
0.0305425
0.0305487
0.0305568
0.0305665
0.0305779
0.030591
0.0306056
0.0306217
0.0306393
0.030658
0.0306776
0.0306979
0.0307185
0.0307391
0.0307593
0.0307788
0.0307973
0.0308146
0.0308305
0.0308448
0.0308571
0.0308674
0.0308754
0.0308808
0.0308835
0.0308833
0.0308803
0.0308745
0.030866
0.0308551
0.030842
0.0308272
0.030811
0.0307941
0.0307769
0.0307599
0.0307436
0.0307286
0.0307151
0.0307034
0.0306937
0.030686
0.0306802
0.030676
0.0306733
0.0306717
0.0306709
0.0306706
0.0306705
0.0306705
0.0306705
0.0306707
0.0306711
0.030672
0.0306737
0.0306764
0.0306805
0.0306861
0.0306934
0.0307026
0.0307134
0.0307256
0.0307389
0.0307528
0.0307666
0.0307798
0.0307916
0.0308015
0.030809
0.030814
0.0308164
0.0308164
0.0308144
0.030811
0.030807
0.0308032
0.0308005
0.0307994
0.0308006
0.0308044
0.0308109
0.0308199
0.0308309
0.0308434
0.0308565
0.0308695
0.0308812
0.030891
0.030898
0.0309018
0.0309021
0.0308986
0.0308986
0.04
0.0292831
0.0298746
0.0295859
0.0299747
0.0304243
0.0306162
0.0306462
0.0306202
0.0307739
0.0312358
0.0312073
0.0308981
0.0310027
0.0313823
0.0313411
0.0311072
0.0311568
0.0313241
0.0312443
0.0310884
0.031071
0.0310636
0.0309404
0.0308223
0.030775
0.0307151
0.0306251
0.0305726
0.0305544
0.0305235
0.0304955
0.030497
0.0305082
0.030511
0.0305245
0.0305536
0.0305831
0.0306119
0.0306521
0.0306983
0.0307422
0.0307866
0.0308351
0.0308809
0.0309228
0.0309645
0.0310066
0.031047
0.0310885
0.031133
0.0311802
0.0312307
0.0312854
0.0313431
0.0314046
0.03147
0.0315377
0.0316081
0.0316835
0.0317619
0.0318427
0.031929
0.0320204
0.0321145
0.032213
0.0323176
0.0324254
0.0325362
0.0326518
0.0327711
0.0328923
0.0330174
0.0331453
0.0332762
0.0334106
0.0335497
0.0336908
0.0338381
0.0339904
0.0341463
0.0343031
0.0344675
0.034632
0.0347958
0.0349569
0.0351233
0.0352821
0.0354383
0.0355885
0.035743
0.0358836
0.0360238
0.0361537
0.0362883
0.0364023
0.0365214
0.0366222
0.0367309
0.0368101
0.0369043
0.0369654
0.037043
0.0370781
0.0371417
0.0371508
0.0371944