# vtk DataFile Version 3.0
LBM output step 840
ASCII
DATASET STRUCTURED_POINTS
DIMENSIONS 400 100 1
ORIGIN 0 0 0
SPACING 1 1 1
POINT_DATA 40000
SCALARS velocity_magnitude double 1
LOOKUP_TABLE default
0
0
0
0
0
0
0
0
0
0
0
0
0
0
0
0
0
0
0
0
0
0
0
0
0
0
0
0
0
0
0
0
0
0
0
0
0
0
0
0
0
0
0
0
0
0
0
0
0
0
0
0
0
0
0
0
0
0
0
0
0
0
0
0
0
0
0
0
0
0
0
0
0
0
0
0
0
0
0
0
0
0
0
0
0
0
0
0
0
0
0
0
0
0
0
0
0
0
0
0
0
0
0
0
0
0
0
0
0
0
0
0
0
0
0
0
0
0
0
0
0
0
0
0
0
0
0
0
0
0
0
0
0
0
0
0
0
0
0
0
0
0
0
0
0
0
0
0
0
0
0
0
0
0
0
0
0
0
0
0
0
0
0
0
0
0
0
0
0
0
0
0
0
0
0
0
0
0
0
0
0
0
0
0
0
0
0
0
0
0
0
0
0
0
0
0
0
0
0
0
0
0
0
0
0
0
0
0
0
0
0
0
0
0
0
0
0
0
0
0
0
0
0
0
0
0
0
0
0
0
0
0
0
0
0
0
0
0
0
0
0
0
0
0
0
0
0
0
0
0
0
0
0
0
0
0
0
0
0
0
0
0
0
0
0
0
0
0
0
0
0
0
0
0
0
0
0
0
0
0
0
0
0
0
0
0
0
0
0
0
0
0
0
0
0
0
0
0
0
0
0
0
0
0
0
0
0
0
0
0
0
0
0
0
0
0
0
0
0
0
0
0
0
0
0
0
0
0
0
0
0
0
0
0
0
0
0
0
0
0
0
0
0
0
0
0
0
0
0
0
0
0
0
0
0
0
0
0
0
0
0
0
0
0
0
0
0
0
0
0
0
0
0
0
0
0
0
0
0
0
0
0
0
0
0
0
0
0
0
0
0
0
0
0
0
0
0
0
0
0
0.04
0.014252
0.00869072
0.0135403
0.0159593
0.0155597
0.0125592
0.0120178
0.0120879
0.0121706
0.0118579
0.0119037
0.0116844
0.0115563
0.0114693
0.0114996
0.0113663
0.0112886
0.0112254
0.0111899
0.0110917
0.0110402
0.0109751
0.010903
0.010801
0.0107198
0.0106141
0.0104979
0.0103692
0.0102481
0.0101096
0.00996938
0.00982828
0.00969015
0.00954682
0.00940612
0.00927258
0.00913825
0.00901171
0.0088848
0.00877372
0.00865484
0.00855623
0.00844698
0.00836325
0.00826137
0.00819097
0.00809825
0.00804065
0.0079564
0.007911
0.00783668
0.00780225
0.00773872
0.00771399
0.00766124
0.00764393
0.00760043
0.0075868
0.00755031
0.0075374
0.00750496
0.00749063
0.00746091
0.00744357
0.00741489
0.00739477
0.00736618
0.00734363
0.00731693
0.0072948
0.00727162
0.00725425
0.00723844
0.00722715
0.00721935
0.0072166
0.00721595
0.00721857
0.00722449
0.00723279
0.00724169
0.00725279
0.00726574
0.00727868
0.00729067
0.00730298
0.00731372
0.00732112
0.00732541
0.00732791
0.00732712
0.00732323
0.00731752
0.00731107
0.00730273
0.00729348
0.00728431
0.0072755
0.00726605
0.00725684
0.0072473
0.00723624
0.00722266
0.00720694
0.00718794
0.00716578
0.00714164
0.00711667
0.00709083
0.00706584
0.00704268
0.00702111
0.00700083
0.00698263
0.00696561
0.0069488
0.00693221
0.00691602
0.00689897
0.00688092
0.00686249
0.00684345
0.00682288
0.0068017
0.00678076
0.00675945
0.00673794
0.00671808
0.0067
0.00668301
0.0066682
0.00665663
0.00664699
0.00663882
0.00663318
0.00662949
0.00662614
0.00662357
0.00662242
0.00662159
0.00662062
0.00662076
0.00662209
0.00662358
0.00662559
0.00662875
0.00663206
0.00663471
0.00663736
0.00664004
0.00664197
0.00664358
0.00664592
0.00664878
0.00665186
0.00665595
0.00666127
0.00666694
0.0066728
0.00667933
0.00668618
0.00669276
0.00669948
0.0067067
0.00671381
0.00672027
0.00672592
0.00673007
0.00673154
0.00672968
0.00672427
0.00671499
0.00670178
0.00668535
0.00666679
0.00664715
0.00662768
0.00660976
0.00659444
0.00658231
0.00657388
0.00656963
0.00656987
0.00657491
0.00658509
0.00660045
0.0066205
0.00664435
0.00667085
0.00669874
0.00672697
0.00675507
0.00678312
0.00681153
0.00684087
0.00687162
0.00690395
0.00693759
0.00697192
0.00700607
0.00703892
0.00706924
0.00709579
0.00711744
0.0071333
0.00714294
0.00714652
0.00714489
0.00713962
0.00713284
0.00712707
0.00712488
0.00712852
0.00713962
0.00715887
0.00718597
0.00721962
0.00725774
0.00729772
0.00733662
0.00737156
0.00739988
0.00741938
0.00742852
0.00742653
0.00741349
0.00739025
0.00735836
0.00731979
0.00727668
0.00723115
0.00718523
0.00714085
0.00709982
0.00706373
0.00703384
0.00701083
0.00699474
0.00698494
0.00698022
0.00697896
0.0069795
0.00698054
0.00698146
0.00698237
0.00698392
0.00698694
0.00699219
0.00700035
0.0070121
0.00702816
0.00704926
0.00707594
0.00710838
0.0071462
0.00718837
0.00723309
0.00727806
0.00732102
0.00736052
0.00739657
0.00743055
0.00746446
0.00749967
0.00753603
0.00757175
0.00760413
0.00763062
0.00764963
0.0076608
0.00766486
0.00766332
0.00765832
0.00765239
0.00764794
0.00764649
0.00764795
0.00765058
0.00765166
0.00764882
0.00764121
0.00762992
0.00761737
0.00760626
0.00759866
0.00759599
0.00759969
0.00761221
0.00763739
0.00767984
0.00774342
0.00782944
0.00793557
0.00805598
0.00818296
0.0083093
0.00843078
0.00854762
0.00866469
0.00879043
0.00893531
0.00911053
0.00932739
0.00959727
0.00993158
0.0103406
0.0108302
0.0113973
0.012024
0.0126737
0.0132918
0.0138125
0.0141745
0.0143423
0.0143274
0.0141938
0.0140364
0.0139333
0.0139024
0.0138986
0.013859
0.0137608
0.0136396
0.0135527
0.0135242
0.013526
0.0135092
0.0134484
0.013359
0.0132775
0.0132308
0.0132171
0.013215
0.0132062
0.0131916
0.0131871
0.0132074
0.0132548
0.0133194
0.0133864
0.0134464
0.0134976
0.0135386
0.0135643
0.0135687
0.0135504
0.0135139
0.0134694
0.0134273
0.0133928
0.0133661
0.0133453
0.0133273
0.0133093
0.013289
0.0132652
0.0132391
0.0132146
0.0131953
0.0131827
0.0131753
0.0131704
0.0131659
0.0131617
0.01316
0.0131642
0.0131783
0.0132051
0.0132453
0.013297
0.0133567
0.0134197
0.013482
0.0135399
0.0135905
0.0136322
0.0136647
0.0136891
0.0137069
0.0137197
0.0137285
0.0137333
0.0137335
0.0137278
0.0137145
0.0136916
0.013656
0.0136046
0.013534
0.0134427
0.0133298
0.013197
0.013047
0.012886
0.0127178
0.0125475
0.012381
0.0122195
0.0122195
0.04
0.0231645
0.0245814
0.0220357
0.0150252
0.0143991
0.0175163
0.0181922
0.0166045
0.0160531
0.0162388
0.0161414
0.0158651
0.0158822
0.0157998
0.0156094
0.0155142
0.0155439
0.0154757
0.0153982
0.0153891
0.0153992
0.0153527
0.0153182
0.0152952
0.0152425
0.0151541
0.0150723
0.0149807
0.0148657
0.0147426
0.0146271
0.0145058
0.0143762
0.0142551
0.0141372
0.0140234
0.0139062
0.0138079
0.0137039
0.0136185
0.0135224
0.0134576
0.0133713
0.0133222
0.0132446
0.0132152
0.013145
0.0131322
0.0130708
0.0130754
0.0130227
0.0130423
0.0130006
0.0130336
0.0130028
0.013045
0.0130256
0.0130734
0.0130626
0.0131118
0.0131103
0.0131571
0.0131615
0.0132065
0.0132167
0.0132559
0.0132714
0.0133095
0.0133283
0.0133649
0.0133933
0.0134333
0.0134675
0.0135146
0.0135603
0.0136108
0.0136621
0.0137207
0.0137774
0.0138352
0.0138955
0.0139582
0.0140172
0.0140763
0.0141363
0.0141933
0.0142442
0.0142927
0.0143377
0.014376
0.0144079
0.0144367
0.0144607
0.014479
0.0144931
0.0145043
0.0145112
0.0145144
0.0145143
0.0145107
0.0145026
0.0144902
0.0144716
0.0144472
0.0144176
0.0143819
0.0143407
0.0142974
0.0142518
0.0142035
0.014156
0.0141106
0.0140636
0.0140168
0.0139731
0.0139286
0.0138816
0.0138366
0.0137923
0.0137446
0.0136968
0.0136513
0.0136042
0.0135554
0.0135093
0.0134649
0.0134197
0.0133766
0.0133381
0.0133016
0.0132669
0.013237
0.0132114
0.0131875
0.0131661
0.0131489
0.0131336
0.0131188
0.0131062
0.013096
0.0130864
0.0130777
0.0130713
0.0130668
0.0130627
0.0130598
0.0130584
0.0130575
0.0130563
0.0130556
0.0130557
0.0130558
0.0130563
0.0130581
0.0130611
0.0130646
0.013069
0.0130747
0.0130808
0.0130868
0.0130934
0.0131006
0.0131077
0.0131149
0.0131224
0.0131296
0.0131355
0.0131399
0.0131421
0.0131412
0.0131368
0.013129
0.0131181
0.0131045
0.0130893
0.0130739
0.0130596
0.0130475
0.0130386
0.0130339
0.0130336
0.0130381
0.0130477
0.0130627
0.0130829
0.0131084
0.0131386
0.0131725
0.0132091
0.0132473
0.0132861
0.0133252
0.0133644
0.0134042
0.013445
0.0134868
0.0135297
0.0135732
0.0136164
0.0136583
0.0136979
0.013734
0.0137655
0.0137915
0.0138116
0.0138255
0.0138337
0.0138372
0.0138376
0.0138369
0.0138377
0.0138421
0.0138522
0.0138694
0.0138941
0.0139259
0.0139634
0.0140044
0.0140465
0.0140868
0.0141227
0.0141516
0.0141717
0.0141815
0.0141806
0.014169
0.0141477
0.0141184
0.0140829
0.0140435
0.0140024
0.0139617
0.0139236
0.0138899
0.0138622
0.0138418
0.0138293
0.0138246
0.0138272
0.0138357
0.0138485
0.013864
0.0138808
0.0138981
0.0139156
0.0139339
0.0139537
0.0139756
0.0140005
0.0140291
0.0140621
0.0141003
0.014144
0.0141932
0.0142476
0.0143059
0.0143664
0.0144269
0.0144852
0.0145398
0.0145905
0.0146384
0.0146851
0.0147316
0.0147778
0.0148221
0.014862
0.0148953
0.0149208
0.0149385
0.0149492
0.0149547
0.0149571
0.0149592
0.0149631
0.0149705
0.0149813
0.014994
0.0150059
0.0150148
0.0150201
0.0150227
0.0150249
0.0150294
0.0150383
0.015053
0.0150751
0.015107
0.0151524
0.0152156
0.0153
0.0154065
0.0155323
0.0156711
0.0158153
0.0159578
0.0160945
0.0162259
0.0163569
0.016496
0.0166535
0.0168407
0.0170692
0.0173512
0.0176994
0.0181262
0.0186402
0.0192409
0.0199134
0.0206231
0.0213163
0.0219261
0.0223881
0.0226623
0.0227551
0.0227272
0.0226721
0.0226687
0.022735
0.0228241
0.0228709
0.0228518
0.0228042
0.0227877
0.0228273
0.0228931
0.0229341
0.0229251
0.0228827
0.0228446
0.0228367
0.0228573
0.0228849
0.0229021
0.0229114
0.0229298
0.0229727
0.0230424
0.0231284
0.0232167
0.0232989
0.0233735
0.023439
0.0234898
0.0235193
0.0235254
0.0235125
0.0234905
0.0234693
0.0234537
0.0234442
0.0234393
0.0234369
0.023435
0.0234317
0.0234253
0.0234168
0.0234093
0.0234065
0.0234099
0.0234185
0.0234301
0.0234434
0.0234585
0.0234773
0.0235025
0.0235371
0.0235832
0.0236408
0.0237077
0.0237801
0.0238538
0.0239253
0.0239916
0.0240504
0.0241006
0.0241417
0.0241744
0.0241994
0.024217
0.0242272
0.0242293
0.0242221
0.0242044
0.0241749
0.024132
0.0240738
0.0239984
0.0239039
0.0237889
0.0236535
0.0235
0.023331
0.0231506
0.0229658
0.022786
0.022612
0.022449
0.022449
0.04
0.0241214
0.0221206
0.0191109
0.0201785
0.022275
0.0212687
0.0196534
0.0199061
0.0204828
0.0199877
0.0194583
0.019421
0.0194052
0.0191507
0.0190299
0.0189982
0.0189081
0.0187972
0.0188025
0.0188107
0.0187865
0.0187793
0.0188116
0.0188062
0.0187744
0.0187424
0.0187027
0.0186278
0.0185447
0.0184633
0.0183737
0.018273
0.018178
0.0180894
0.0179966
0.01791
0.0178289
0.0177602
0.0176861
0.0176324
0.0175725
0.0175376
0.0174847
0.0174692
0.0174255
0.0174282
0.0173894
0.0174119
0.0173784
0.0174194
0.017391
0.0174501
0.0174284
0.0175036
0.0174883
0.0175759
0.0175691
0.0176634
0.0176638
0.0177621
0.0177713
0.0178671
0.0178854
0.017979
0.0180044
0.0180922
0.0181278
0.0182107
0.0182529
0.0183347
0.0183881
0.0184684
0.018532
0.0186178
0.0186901
0.0187767
0.0188585
0.0189487
0.0190321
0.0191229
0.0192121
0.019302
0.019389
0.0194795
0.0195672
0.019651
0.0197317
0.0198108
0.0198831
0.0199486
0.0200095
0.0200659
0.0201144
0.0201565
0.0201942
0.0202267
0.0202518
0.0202714
0.0202865
0.0202953
0.0202958
0.0202904
0.020278
0.0202557
0.0202249
0.0201885
0.020144
0.020092
0.0200378
0.0199813
0.0199198
0.0198581
0.0197979
0.0197348
0.0196698
0.019607
0.0195428
0.0194752
0.0194084
0.0193425
0.0192738
0.0192047
0.0191379
0.0190708
0.0190027
0.0189373
0.0188744
0.0188121
0.0187522
0.0186969
0.0186447
0.018595
0.0185497
0.0185089
0.0184707
0.0184352
0.0184034
0.0183743
0.0183467
0.0183214
0.0182989
0.0182782
0.0182592
0.0182426
0.0182283
0.0182155
0.0182039
0.0181942
0.0181856
0.0181778
0.0181709
0.0181655
0.0181612
0.0181578
0.0181559
0.0181556
0.0181561
0.0181573
0.0181597
0.0181629
0.0181665
0.0181707
0.0181758
0.0181813
0.0181868
0.0181923
0.0181971
0.0182003
0.0182013
0.0181997
0.0181951
0.0181871
0.0181763
0.0181633
0.0181489
0.0181342
0.0181206
0.0181092
0.0181011
0.0180971
0.0180977
0.0181034
0.0181142
0.0181301
0.018151
0.0181767
0.0182067
0.0182402
0.0182764
0.0183143
0.0183534
0.0183932
0.0184336
0.0184748
0.0185169
0.0185602
0.0186044
0.0186491
0.0186934
0.0187363
0.0187768
0.0188139
0.0188468
0.0188747
0.0188974
0.0189146
0.0189269
0.0189351
0.0189403
0.0189443
0.018949
0.0189561
0.0189673
0.0189838
0.019006
0.0190337
0.019066
0.0191014
0.0191379
0.0191733
0.0192054
0.0192323
0.0192523
0.0192641
0.0192668
0.0192605
0.0192454
0.0192227
0.0191938
0.0191607
0.0191253
0.0190897
0.019056
0.0190262
0.0190019
0.0189842
0.018974
0.0189713
0.0189757
0.0189864
0.0190021
0.0190212
0.0190424
0.0190647
0.0190873
0.0191103
0.0191341
0.0191593
0.0191867
0.0192172
0.0192516
0.0192904
0.0193339
0.0193823
0.0194349
0.019491
0.0195491
0.0196074
0.0196641
0.0197177
0.0197678
0.0198147
0.0198596
0.0199032
0.0199454
0.0199849
0.02002
0.020049
0.020071
0.0200859
0.0200948
0.020099
0.0201006
0.020102
0.0201056
0.0201128
0.0201238
0.0201374
0.0201514
0.0201634
0.0201726
0.0201792
0.0201849
0.0201915
0.0202004
0.020213
0.0202304
0.0202552
0.0202909
0.0203419
0.0204117
0.0205012
0.0206083
0.0207275
0.020852
0.0209754
0.0210944
0.0212097
0.0213262
0.0214521
0.0215975
0.0217737
0.0219924
0.0222661
0.0226078
0.0230298
0.0235405
0.024139
0.0248093
0.0255157
0.026203
0.0268028
0.0272493
0.0275021
0.0275695
0.0275165
0.0274429
0.0274321
0.027502
0.0275999
0.0276532
0.0276356
0.0275879
0.0275761
0.0276271
0.0277079
0.0277627
0.0277648
0.0277329
0.0277068
0.0277136
0.0277511
0.0277969
0.0278326
0.0278602
0.0278971
0.0279584
0.0280453
0.0281463
0.0282465
0.0283377
0.0284193
0.028491
0.0285482
0.0285853
0.0286005
0.0285984
0.0285885
0.0285795
0.0285754
0.0285761
0.0285802
0.0285864
0.0285931
0.0285983
0.0286001
0.0285991
0.0285981
0.0286005
0.0286082
0.0286203
0.0286355
0.028653
0.0286733
0.0286977
0.0287276
0.0287647
0.02881
0.0288632
0.0289226
0.0289857
0.0290501
0.0291141
0.0291762
0.029235
0.0292892
0.0293375
0.0293789
0.0294119
0.0294351
0.0294468
0.0294458
0.0294309
0.0294016
0.0293581
0.0293008
0.0292295
0.0291443
0.0290448
0.0289303
0.0288004
0.0286566
0.0285014
0.0283369
0.0281663
0.0279968
0.0278326
0.0276804
0.0276804
0.04
0.0259288
0.0271687
0.0270649
0.0266571
0.0239972
0.0224094
0.0234298
0.0241149
0.0230031
0.0221663
0.0224344
0.0225053
0.0220606
0.021794
0.0218359
0.0217111
0.0215201
0.0214679
0.0214801
0.0214019
0.021374
0.0214164
0.021447
0.0214311
0.0214483
0.0214643
0.0214429
0.0213975
0.0213658
0.0213172
0.0212499
0.0211834
0.0211263
0.0210603
0.0209926
0.0209365
0.0208845
0.0208354
0.020789
0.0207602
0.0207266
0.02071
0.0206861
0.0206899
0.020672
0.0206917
0.0206796
0.0207181
0.0207076
0.0207654
0.0207569
0.0208343
0.0208278
0.0209235
0.0209179
0.0210298
0.0210267
0.0211482
0.0211492
0.0212781
0.0212837
0.0214133
0.0214284
0.0215551
0.021578
0.0217009
0.021735
0.02185
0.0218962
0.0220083
0.0220653
0.0221741
0.0222464
0.0223542
0.022435
0.0225446
0.0226356
0.0227412
0.022837
0.0229455
0.0230439
0.0231482
0.023251
0.0233572
0.0234565
0.0235581
0.023658
0.0237538
0.0238426
0.0239298
0.0240118
0.0240861
0.0241538
0.0242178
0.0242747
0.0243241
0.0243675
0.024405
0.0244342
0.0244563
0.0244704
0.0244752
0.0244707
0.0244574
0.0244328
0.0243988
0.0243577
0.024308
0.0242507
0.0241909
0.0241272
0.0240582
0.0239887
0.0239189
0.0238442
0.0237677
0.0236922
0.0236133
0.0235307
0.0234495
0.023368
0.0232832
0.023199
0.0231172
0.0230345
0.0229516
0.0228717
0.0227942
0.0227174
0.0226433
0.0225737
0.0225074
0.0224436
0.022384
0.0223288
0.0222766
0.0222268
0.0221807
0.0221379
0.0220972
0.0220588
0.0220237
0.0219913
0.0219608
0.0219327
0.0219078
0.0218849
0.0218634
0.0218441
0.0218272
0.0218115
0.0217971
0.021785
0.0217747
0.0217651
0.0217569
0.0217506
0.0217449
0.0217396
0.0217358
0.021733
0.0217306
0.0217289
0.0217282
0.0217277
0.0217265
0.0217247
0.0217218
0.0217165
0.0217084
0.0216977
0.0216842
0.0216679
0.0216497
0.0216305
0.0216114
0.0215931
0.0215771
0.0215647
0.0215565
0.0215533
0.0215554
0.0215629
0.0215754
0.0215927
0.0216143
0.0216398
0.0216685
0.0217001
0.0217338
0.0217691
0.0218056
0.0218433
0.0218821
0.0219219
0.0219628
0.0220045
0.0220463
0.0220874
0.0221269
0.0221638
0.0221971
0.0222263
0.022251
0.0222709
0.0222862
0.0222973
0.0223048
0.0223097
0.022313
0.0223161
0.0223202
0.0223265
0.0223359
0.022349
0.0223657
0.0223857
0.0224079
0.0224312
0.0224539
0.0224746
0.0224917
0.0225038
0.0225096
0.0225082
0.0224991
0.0224822
0.022458
0.0224275
0.0223922
0.0223541
0.0223151
0.0222773
0.0222428
0.0222131
0.0221894
0.0221726
0.0221631
0.0221607
0.0221649
0.0221751
0.0221899
0.0222081
0.0222283
0.0222496
0.0222713
0.0222935
0.0223168
0.0223418
0.0223695
0.0224005
0.0224353
0.022474
0.0225162
0.0225616
0.0226095
0.0226592
0.0227095
0.0227588
0.022806
0.0228502
0.0228913
0.0229295
0.0229653
0.0229984
0.0230282
0.0230534
0.0230728
0.0230859
0.0230928
0.0230941
0.0230913
0.023086
0.0230804
0.0230766
0.0230763
0.02308
0.023087
0.0230955
0.0231034
0.0231095
0.0231134
0.023116
0.0231182
0.0231211
0.0231255
0.0231326
0.0231449
0.0231658
0.0231996
0.0232497
0.0233175
0.0234011
0.0234959
0.023596
0.0236961
0.0237934
0.0238889
0.0239874
0.0240969
0.0242272
0.0243898
0.0245966
0.0248606
0.0251955
0.0256139
0.0261245
0.0267259
0.0274015
0.028114
0.0288062
0.0294074
0.0298497
0.0300911
0.0301405
0.0300662
0.0299738
0.0299515
0.0300166
0.0301101
0.0301519
0.030113
0.0300394
0.0300055
0.030042
0.0301117
0.0301524
0.0301349
0.0300807
0.0300345
0.0300256
0.030051
0.0300858
0.0301092
0.0301231
0.0301472
0.0301982
0.0302763
0.030367
0.0304537
0.0305279
0.0305909
0.030645
0.0306873
0.0307125
0.030718
0.0307074
0.0306895
0.0306727
0.0306601
0.0306513
0.0306446
0.0306389
0.0306337
0.0306277
0.0306193
0.0306087
0.030598
0.03059
0.0305863
0.0305868
0.0305911
0.0305995
0.0306128
0.0306316
0.0306559
0.0306854
0.0307198
0.0307583
0.0307997
0.030843
0.0308877
0.0309341
0.0309821
0.0310313
0.0310801
0.0311263
0.0311669
0.0311985
0.0312171
0.0312194
0.0312028
0.0311663
0.0311103
0.0310364
0.0309472
0.0308455
0.0307332
0.0306114
0.0304814
0.0303432
0.0301965
0.030042
0.0298845
0.0297253
0.0295667
0.0294143
0.0292761
0.0292761
0.04
0.026746
0.0278193
0.0264433
0.0256333
0.0256741
0.0266464
0.0259811
0.0245338
0.0244245
0.0251078
0.0248308
0.0240898
0.0239765
0.0241143
0.0238996
0.0236047
0.0235634
0.0235182
0.023372
0.023285
0.0233075
0.0232857
0.0232586
0.0232859
0.0233333
0.0233314
0.0233316
0.0233432
0.0233367
0.0233005
0.0232732
0.0232458
0.0232054
0.0231596
0.0231258
0.023092
0.0230547
0.0230255
0.0230043
0.0229876
0.0229703
0.0229689
0.0229644
0.0229749
0.0229754
0.0230031
0.0230079
0.0230496
0.0230561
0.0231165
0.0231214
0.0232015
0.0232046
0.0233039
0.0233037
0.0234216
0.023417
0.0235495
0.0235448
0.0236868
0.0236826
0.0238313
0.0238327
0.0239795
0.0239903
0.0241346
0.0241554
0.0242934
0.0243298
0.0244606
0.024511
0.0246388
0.0247041
0.024826
0.0249059
0.0250261
0.025113
0.0252295
0.0253268
0.0254397
0.025539
0.0256534
0.0257594
0.0258697
0.0259764
0.0260891
0.0261951
0.0262996
0.0264017
0.0265023
0.0265948
0.0266826
0.0267663
0.0268448
0.0269148
0.0269789
0.0270374
0.0270888
0.0271304
0.0271641
0.0271904
0.027206
0.0272091
0.0272038
0.0271883
0.0271593
0.0271208
0.0270767
0.0270222
0.0269595
0.0268954
0.0268272
0.0267514
0.0266747
0.0265978
0.0265144
0.0264273
0.0263414
0.026252
0.0261577
0.0260642
0.0259714
0.0258753
0.025779
0.0256852
0.0255916
0.0254971
0.025405
0.0253159
0.0252279
0.0251417
0.0250599
0.0249816
0.0249058
0.0248332
0.0247653
0.0247006
0.0246381
0.0245791
0.0245239
0.0244713
0.0244209
0.024374
0.0243307
0.0242895
0.0242507
0.0242155
0.0241831
0.0241525
0.0241245
0.0240996
0.0240765
0.0240547
0.0240352
0.0240178
0.024001
0.0239851
0.023971
0.0239577
0.0239447
0.0239331
0.0239228
0.023913
0.0239034
0.0238944
0.0238852
0.0238748
0.0238629
0.0238493
0.0238332
0.0238142
0.0237928
0.0237695
0.0237446
0.0237188
0.0236933
0.0236693
0.0236475
0.0236292
0.0236155
0.023607
0.0236038
0.0236061
0.0236135
0.0236253
0.023641
0.0236601
0.0236823
0.023707
0.023734
0.0237629
0.0237935
0.0238254
0.0238587
0.023893
0.0239283
0.0239641
0.0239998
0.0240345
0.0240674
0.0240975
0.0241242
0.024147
0.0241657
0.0241804
0.0241912
0.0241985
0.0242027
0.0242044
0.0242042
0.0242027
0.0242007
0.0241991
0.0241983
0.0241992
0.0242018
0.0242064
0.0242127
0.0242202
0.024228
0.0242351
0.0242405
0.0242429
0.0242412
0.0242342
0.0242211
0.0242014
0.024175
0.0241425
0.024105
0.0240641
0.0240216
0.0239797
0.0239403
0.0239048
0.0238746
0.0238506
0.0238331
0.0238227
0.0238191
0.0238221
0.0238311
0.0238448
0.0238619
0.023881
0.0239014
0.0239225
0.0239446
0.0239683
0.0239943
0.0240231
0.0240546
0.0240886
0.0241246
0.0241622
0.024201
0.0242406
0.0242806
0.0243204
0.0243591
0.0243959
0.0244301
0.0244614
0.0244895
0.0245142
0.024535
0.0245513
0.0245624
0.024568
0.0245681
0.0245632
0.0245543
0.0245429
0.0245306
0.0245196
0.0245115
0.0245072
0.0245066
0.0245084
0.0245111
0.0245132
0.0245139
0.0245131
0.0245109
0.0245077
0.0245039
0.0245006
0.0245001
0.024506
0.0245223
0.0245525
0.0245977
0.0246567
0.0247256
0.0247994
0.0248738
0.0249469
0.0250202
0.0250986
0.0251898
0.0253035
0.0254508
0.0256439
0.0258961
0.0262218
0.0266344
0.0271431
0.0277469
0.0284288
0.0291508
0.0298535
0.0304636
0.0309098
0.0311474
0.0311844
0.0310919
0.0309812
0.0309464
0.0310071
0.0311006
0.0311397
0.0310908
0.0310017
0.0309517
0.0309755
0.0310353
0.0310661
0.0310371
0.0309706
0.0309118
0.0308904
0.0309037
0.0309275
0.0309417
0.0309479
0.030965
0.0310084
0.0310768
0.0311548
0.0312264
0.0312844
0.0313309
0.0313686
0.0313953
0.0314062
0.0313997
0.0313798
0.0313547
0.0313309
0.0313099
0.0312902
0.0312706
0.0312516
0.0312339
0.0312169
0.0311988
0.0311789
0.0311583
0.0311396
0.0311245
0.0311138
0.0311079
0.0311077
0.0311139
0.0311263
0.0311436
0.0311643
0.031187
0.0312107
0.0312349
0.0312595
0.0312858
0.0313157
0.0313505
0.0313905
0.0314343
0.0314789
0.0315193
0.0315498
0.0315646
0.0315583
0.0315277
0.0314714
0.031391
0.0312895
0.0311716
0.0310427
0.0309078
0.0307695
0.0306301
0.0304905
0.0303508
0.0302096
0.0300682
0.0299276
0.0297902
0.0296619
0.0295464
0.0295464
0.04
0.0247183
0.0252039
0.0263909
0.0271016
0.0269176
0.0265328
0.02587
0.0261883
0.0265716
0.0260611
0.025413
0.0255687
0.0257692
0.0254257
0.0250772
0.0250919
0.0250779
0.0248493
0.024698
0.0246783
0.0246183
0.0245182
0.0245116
0.0245405
0.024537
0.0245357
0.0245754
0.024596
0.0245889
0.024586
0.0245916
0.0245743
0.0245493
0.0245326
0.0245164
0.0244902
0.0244693
0.0244571
0.0244446
0.0244336
0.02443
0.0244351
0.0244374
0.0244511
0.0244629
0.0244896
0.0245029
0.0245433
0.0245589
0.024614
0.0246277
0.0247022
0.0247104
0.0248047
0.0248071
0.0249201
0.0249137
0.0250461
0.0250333
0.0251781
0.025164
0.0253189
0.0253048
0.0254628
0.0254578
0.0256129
0.0256185
0.0257705
0.025791
0.0259346
0.0259738
0.0261113
0.0261651
0.0262973
0.0263682
0.0264922
0.0265739
0.0266962
0.0267861
0.0269012
0.027001
0.0271178
0.0272196
0.0273345
0.0274455
0.0275598
0.0276669
0.0277802
0.0278895
0.0279943
0.0280938
0.0281935
0.028286
0.0283712
0.0284517
0.0285282
0.0285953
0.0286547
0.0287076
0.0287512
0.0287833
0.028807
0.0288196
0.0288188
0.0288078
0.0287868
0.028752
0.0287077
0.0286573
0.0285972
0.0285292
0.0284595
0.0283846
0.0283027
0.0282194
0.0281342
0.0280419
0.0279468
0.0278517
0.0277523
0.0276492
0.0275474
0.0274452
0.0273403
0.027236
0.0271338
0.0270312
0.0269285
0.0268281
0.02673
0.0266331
0.0265384
0.0264473
0.0263597
0.0262746
0.0261927
0.0261149
0.0260406
0.0259688
0.0259002
0.0258357
0.0257742
0.025715
0.0256593
0.0256077
0.0255588
0.0255124
0.0254701
0.0254313
0.0253946
0.0253608
0.0253303
0.0253018
0.0252743
0.0252491
0.0252255
0.0252023
0.02518
0.0251593
0.0251395
0.0251202
0.0251021
0.0250852
0.0250685
0.0250515
0.0250345
0.0250168
0.0249972
0.0249756
0.024952
0.0249261
0.0248978
0.0248679
0.0248372
0.0248061
0.0247753
0.0247461
0.0247195
0.0246963
0.0246777
0.0246645
0.0246569
0.0246547
0.0246572
0.0246639
0.0246741
0.0246871
0.024703
0.0247215
0.0247424
0.0247654
0.0247902
0.0248165
0.0248439
0.0248722
0.0249012
0.0249306
0.0249596
0.0249878
0.0250143
0.0250383
0.0250592
0.0250766
0.0250906
0.0251012
0.0251086
0.025113
0.0251147
0.0251137
0.0251102
0.0251044
0.0250966
0.0250872
0.0250767
0.0250659
0.0250555
0.0250461
0.0250381
0.0250317
0.0250268
0.0250229
0.0250191
0.0250145
0.0250079
0.0249979
0.0249833
0.0249632
0.024937
0.0249048
0.0248674
0.0248261
0.0247826
0.0247388
0.0246966
0.0246573
0.0246221
0.024592
0.0245677
0.0245498
0.0245388
0.024535
0.0245381
0.0245474
0.0245616
0.0245792
0.0245989
0.0246201
0.0246427
0.0246672
0.024694
0.024723
0.0247538
0.0247856
0.0248175
0.0248491
0.0248801
0.024911
0.0249421
0.0249736
0.0250051
0.0250359
0.0250649
0.0250915
0.0251148
0.0251346
0.0251508
0.025163
0.0251709
0.0251743
0.0251729
0.0251668
0.0251566
0.0251429
0.0251273
0.0251114
0.0250971
0.0250859
0.0250783
0.0250741
0.025072
0.0250708
0.0250691
0.025066
0.0250608
0.0250532
0.0250432
0.0250318
0.0250211
0.0250144
0.0250158
0.0250283
0.0250535
0.0250905
0.0251362
0.0251868
0.025239
0.0252916
0.0253464
0.0254081
0.0254843
0.0255845
0.0257195
0.0259021
0.0261463
0.0264672
0.0268788
0.0273909
0.0280023
0.0286953
0.0294305
0.0301466
0.0307674
0.0312191
0.0314551
0.0314833
0.0313781
0.0312568
0.0312191
0.0312856
0.0313882
0.0314313
0.0313765
0.0312739
0.0312102
0.0312255
0.0312817
0.0313092
0.0312737
0.0311976
0.0311289
0.0310997
0.0311087
0.0311309
0.0311441
0.0311485
0.0311631
0.0312038
0.0312686
0.0313412
0.0314049
0.0314522
0.0314858
0.0315105
0.0315267
0.0315309
0.0315215
0.0315016
0.0314776
0.0314543
0.031432
0.0314091
0.0313847
0.0313601
0.0313366
0.0313144
0.031292
0.0312687
0.0312455
0.0312242
0.0312061
0.0311921
0.0311832
0.0311809
0.031186
0.0311978
0.0312137
0.0312309
0.0312472
0.0312616
0.0312744
0.0312874
0.0313035
0.0313258
0.0313565
0.0313961
0.0314426
0.0314918
0.0315375
0.0315718
0.0315873
0.0315776
0.0315386
0.031469
0.031371
0.0312494
0.0311111
0.0309632
0.0308132
0.0306666
0.0305259
0.0303917
0.0302649
0.0301443
0.0300279
0.0299158
0.0298082
0.0297055
0.0296118
0.0296118
0.04
0.0247386
0.0254384
0.0259024
0.0260563
0.0260859
0.0262441
0.0266622
0.0269587
0.0263507
0.026083
0.0265427
0.0266906
0.0261733
0.0259645
0.026178
0.0261379
0.0258115
0.0256865
0.0257114
0.025583
0.0254065
0.0253657
0.0253631
0.0252975
0.0252705
0.025308
0.0253284
0.0253179
0.0253364
0.0253626
0.0253598
0.025347
0.0253509
0.0253467
0.0253278
0.025314
0.0253098
0.0252989
0.0252869
0.0252851
0.0252875
0.0252893
0.0252951
0.0253115
0.0253253
0.0253476
0.0253664
0.0254028
0.0254214
0.0254709
0.0254895
0.0255555
0.0255675
0.0256542
0.0256565
0.0257621
0.025755
0.0258807
0.0258616
0.0260052
0.0259817
0.0261352
0.0261099
0.0262718
0.0262511
0.0264117
0.0264043
0.026562
0.0265687
0.0267208
0.0267471
0.0268896
0.0269347
0.0270717
0.0271315
0.0272604
0.0273373
0.0274594
0.027544
0.0276651
0.0277617
0.027877
0.0279802
0.0281006
0.0282088
0.0283238
0.0284369
0.0285546
0.0286635
0.0287732
0.0288809
0.0289848
0.0290804
0.0291733
0.0292614
0.029343
0.0294162
0.0294827
0.0295417
0.0295914
0.0296288
0.0296564
0.0296747
0.0296793
0.0296697
0.0296518
0.0296223
0.0295779
0.029526
0.0294692
0.0294005
0.0293248
0.0292492
0.0291671
0.0290762
0.0289855
0.0288928
0.0287917
0.0286877
0.0285853
0.0284784
0.0283675
0.0282587
0.0281505
0.0280395
0.0279288
0.0278207
0.0277128
0.0276043
0.027498
0.0273946
0.0272925
0.0271919
0.027095
0.027002
0.0269115
0.0268235
0.02674
0.0266604
0.0265832
0.0265088
0.0264391
0.0263728
0.0263088
0.0262484
0.026193
0.0261406
0.0260908
0.0260456
0.0260045
0.0259654
0.0259289
0.0258958
0.0258645
0.0258338
0.0258047
0.0257775
0.0257504
0.0257239
0.0256992
0.0256757
0.0256524
0.0256298
0.0256082
0.0255863
0.0255634
0.0255397
0.025515
0.0254881
0.0254588
0.0254277
0.025395
0.0253607
0.0253258
0.0252914
0.0252578
0.0252256
0.0251962
0.0251706
0.0251494
0.0251335
0.0251233
0.0251183
0.0251178
0.025121
0.0251273
0.0251363
0.0251476
0.0251615
0.0251779
0.0251965
0.0252168
0.0252386
0.0252613
0.0252846
0.0253083
0.0253323
0.0253561
0.0253791
0.0254009
0.0254207
0.0254379
0.0254522
0.0254636
0.0254721
0.0254778
0.0254807
0.0254809
0.025478
0.025472
0.0254626
0.02545
0.0254343
0.0254161
0.0253962
0.0253756
0.0253555
0.0253368
0.0253204
0.0253064
0.0252949
0.0252853
0.0252766
0.0252676
0.0252569
0.0252429
0.0252244
0.0252006
0.0251711
0.0251364
0.0250975
0.025056
0.0250133
0.0249713
0.024931
0.0248938
0.0248604
0.0248317
0.0248087
0.0247921
0.0247827
0.0247809
0.0247862
0.0247978
0.0248141
0.0248338
0.0248561
0.0248807
0.0249077
0.0249371
0.0249687
0.0250013
0.0250338
0.0250648
0.0250936
0.0251202
0.0251453
0.0251702
0.0251959
0.0252226
0.0252501
0.0252771
0.0253025
0.0253252
0.0253448
0.0253613
0.0253747
0.025385
0.0253916
0.0253941
0.0253921
0.0253853
0.0253739
0.0253587
0.0253412
0.0253232
0.0253066
0.0252928
0.0252825
0.0252754
0.0252704
0.025266
0.0252606
0.0252529
0.0252419
0.0252274
0.0252101
0.0251922
0.0251767
0.0251674
0.0251673
0.0251776
0.0251979
0.0252258
0.0252582
0.025293
0.0253296
0.0253702
0.0254196
0.0254848
0.025575
0.0257011
0.0258758
0.0261137
0.0264307
0.0268419
0.0273576
0.0279775
0.0286835
0.0294354
0.03017
0.0308087
0.031274
0.0315166
0.0315433
0.0314308
0.0313016
0.0312615
0.0313336
0.0314466
0.0314979
0.0314435
0.0313333
0.0312592
0.0312669
0.0313197
0.031346
0.0313087
0.031229
0.0311557
0.0311226
0.0311299
0.0311529
0.0311683
0.031175
0.0311913
0.0312325
0.0312961
0.0313655
0.0314236
0.0314631
0.0314876
0.031504
0.0315141
0.031516
0.0315076
0.0314911
0.0314713
0.0314518
0.031432
0.0314098
0.0313843
0.0313572
0.031331
0.0313069
0.0312842
0.0312623
0.0312414
0.0312221
0.0312053
0.0311922
0.0311844
0.0311837
0.0311908
0.031204
0.0312201
0.0312356
0.0312482
0.0312576
0.0312649
0.0312729
0.0312853
0.0313057
0.0313367
0.0313787
0.0314293
0.0314831
0.0315327
0.0315694
0.0315843
0.0315705
0.0315239
0.0314435
0.0313318
0.0311946
0.0310405
0.0308786
0.0307176
0.0305647
0.0304247
0.0302983
0.0301851
0.0300835
0.029991
0.0299065
0.0298283
0.0297542
0.0296854
0.0296854
0.04
0.0253834
0.0259118
0.0255662
0.0258971
0.0262638
0.0264077
0.0264141
0.0263438
0.0264373
0.0268457
0.0267689
0.0264139
0.0264615
0.0267522
0.0266228
0.0263274
0.026317
0.026389
0.0262217
0.0260205
0.0259811
0.0259464
0.0258261
0.025753
0.0257654
0.025757
0.0257287
0.0257412
0.0257724
0.0257716
0.0257673
0.0257808
0.0257864
0.0257723
0.0257653
0.0257652
0.0257564
0.0257434
0.0257408
0.0257407
0.0257376
0.0257397
0.0257497
0.0257617
0.0257734
0.0257954
0.0258154
0.0258456
0.0258666
0.0259122
0.0259316
0.0259914
0.0260063
0.0260849
0.0260873
0.0261873
0.026178
0.0262962
0.0262748
0.0264141
0.026382
0.0265336
0.0265009
0.0266604
0.026629
0.0267926
0.0267741
0.0269333
0.0269316
0.027087
0.027103
0.0272498
0.0272876
0.0274251
0.0274798
0.0276128
0.0276832
0.0278069
0.027893
0.0280164
0.0281093
0.02823
0.0283377
0.0284578
0.0285656
0.0286883
0.028805
0.0289215
0.0290337
0.0291515
0.0292616
0.0293657
0.0294666
0.0295666
0.0296567
0.0297396
0.029819
0.0298914
0.029951
0.0300029
0.0300468
0.0300768
0.030094
0.0301032
0.0300981