# vtk DataFile Version 3.0
LBM output step 560
ASCII
DATASET STRUCTURED_POINTS
DIMENSIONS 400 100 1
ORIGIN 0 0 0
SPACING 1 1 1
POINT_DATA 40000
SCALARS velocity_magnitude double 1
LOOKUP_TABLE default
0
0
0
0
0
0
0
0
0
0
0
0
0
0
0
0
0
0
0
0
0
0
0
0
0
0
0
0
0
0
0
0
0
0
0
0
0
0
0
0
0
0
0
0
0
0
0
0
0
0
0
0
0
0
0
0
0
0
0
0
0
0
0
0
0
0
0
0
0
0
0
0
0
0
0
0
0
0
0
0
0
0
0
0
0
0
0
0
0
0
0
0
0
0
0
0
0
0
0
0
0
0
0
0
0
0
0
0
0
0
0
0
0
0
0
0
0
0
0
0
0
0
0
0
0
0
0
0
0
0
0
0
0
0
0
0
0
0
0
0
0
0
0
0
0
0
0
0
0
0
0
0
0
0
0
0
0
0
0
0
0
0
0
0
0
0
0
0
0
0
0
0
0
0
0
0
0
0
0
0
0
0
0
0
0
0
0
0
0
0
0
0
0
0
0
0
0
0
0
0
0
0
0
0
0
0
0
0
0
0
0
0
0
0
0
0
0
0
0
0
0
0
0
0
0
0
0
0
0
0
0
0
0
0
0
0
0
0
0
0
0
0
0
0
0
0
0
0
0
0
0
0
0
0
0
0
0
0
0
0
0
0
0
0
0
0
0
0
0
0
0
0
0
0
0
0
0
0
0
0
0
0
0
0
0
0
0
0
0
0
0
0
0
0
0
0
0
0
0
0
0
0
0
0
0
0
0
0
0
0
0
0
0
0
0
0
0
0
0
0
0
0
0
0
0
0
0
0
0
0
0
0
0
0
0
0
0
0
0
0
0
0
0
0
0
0
0
0
0
0
0
0
0
0
0
0
0
0
0
0
0
0
0
0
0
0
0
0
0
0
0
0
0
0
0
0
0
0
0
0
0
0
0
0
0
0
0
0
0
0
0
0
0
0
0
0
0
0
0
0
0.04
0.0143725
0.00886813
0.0140974
0.016448
0.0160845
0.0131716
0.0127234
0.0128279
0.0129235
0.0125991
0.0126447
0.012452
0.0123696
0.0123313
0.0124098
0.0123115
0.0122462
0.0121714
0.0121028
0.0119554
0.0118393
0.0117108
0.0115705
0.0114127
0.0112692
0.011126
0.0109605
0.010818
0.0106635
0.0105397
0.0103848
0.0102835
0.0101452
0.0100549
0.00991802
0.00983306
0.00969605
0.00959954
0.00945747
0.0093522
0.00920859
0.00909391
0.00895559
0.00884077
0.00871174
0.00860145
0.00848765
0.00838912
0.00829287
0.00821033
0.00813596
0.00807505
0.00802487
0.00798803
0.00796344
0.00794968
0.00794402
0.00794501
0.00795063
0.00795705
0.00796306
0.00796859
0.00797249
0.00797365
0.00797431
0.00797545
0.00797629
0.00797758
0.00798073
0.00798334
0.00798345
0.00798272
0.00798067
0.00797607
0.00797258
0.00797429
0.00798048
0.0079943
0.00802117
0.00806165
0.00811382
0.00818004
0.00825867
0.00834361
0.00842876
0.00851172
0.00858749
0.00865161
0.00870277
0.00874356
0.00877216
0.00878819
0.00879466
0.00879634
0.00879541
0.00879682
0.00880276
0.00881235
0.00882201
0.00883169
0.00884205
0.00885455
0.00886932
0.00888651
0.00890263
0.00891665
0.00893173
0.0089528
0.00898106
0.00901543
0.00905017
0.00907739
0.00909236
0.00909853
0.00910201
0.00910775
0.0091178
0.00912942
0.00913443
0.00912944
0.00912009
0.00911525
0.0091229
0.00914845
0.0091858
0.00921828
0.00923189
0.00922276
0.00919643
0.00916994
0.00916679
0.00920309
0.00927935
0.0093835
0.00949368
0.00958212
0.00962539
0.00961349
0.00954831
0.00944016
0.00930706
0.00916984
0.00904382
0.00893863
0.00886103
0.00881248
0.00878847
0.00878445
0.00879698
0.00882022
0.00884807
0.00887808
0.00890862
0.00893631
0.00895931
0.00897879
0.00899517
0.00900724
0.00901583
0.00902329
0.00903001
0.00903552
0.00904097
0.00904763
0.00905503
0.00906254
0.0090705
0.00907893
0.00908676
0.00909325
0.00909854
0.0091027
0.00910579
0.00910877
0.00911323
0.00912044
0.00913152
0.00914772
0.00916967
0.00919724
0.00923008
0.00926769
0.00930924
0.00935397
0.00940141
0.00945124
0.00950306
0.00955662
0.0096118
0.00966832
0.00972588
0.00978433
0.00984348
0.00990287
0.00996185
0.0100197
0.0100757
0.0101295
0.010181
0.0102306
0.0102784
0.0103241
0.010366
0.0104015
0.0104278
0.0104431
0.0104479
0.0104449
0.0104382
0.0104318
0.0104274
0.0104231
0.0104153
0.0103997
0.0103747
0.010342
0.0103066
0.010275
0.010252
0.0102398
0.0102376
0.0102425
0.010252
0.0102645
0.0102797
0.0102978
0.010319
0.0103431
0.0103698
0.0104
0.0104359
0.0104817
0.0105424
0.0106225
0.0107248
0.0108494
0.0109942
0.0111543
0.0113233
0.0114932
0.0116556
0.0118022
0.0119263
0.0120241
0.0120961
0.0121476
0.0121878
0.0122281
0.0122785
0.012345
0.0124267
0.0125155
0.0125972
0.0126551
0.0126739
0.0126439
0.012563
0.0124369
0.0122765
0.0120955
0.0119085
0.011729
0.0115671
0.0114274
0.0113116
0.0112217
0.0111619
0.0111368
0.0111492
0.0112009
0.0112939
0.0114293
0.0116045
0.0118136
0.0120486
0.012301
0.0125608
0.0128183
0.0130678
0.0133087
0.0135407
0.0137598
0.0139623
0.0141517
0.0143386
0.0145299
0.0147199
0.0148966
0.0150585
0.0152193
0.0153921
0.015571
0.0157349
0.0158707
0.01599
0.016118
0.0162661
0.0164176
0.0165448
0.0166399
0.0167279
0.0168448
0.0170006
0.0171684
0.0173169
0.0174539
0.01763
0.0178827
0.0181641
0.0183396
0.0183026
0.0181259
0.0180893
0.0185062
0.0194513
0.0205804
0.0212139
0.0207295
0.0190474
0.0168016
0.0150209
0.0145706
0.0156926
0.0177718
0.0194617
0.0193676
0.0169989
0.0131021
0.00898766
0.00561404
0.00327121
0.00181386
0.000970645
0.00050578
0.000258001
0.000129234
6.36796e-05
3.09011e-05
1.47792e-05
6.97227e-06
3.24755e-06
1.49539e-06
6.81922e-07
3.08697e-07
1.39144e-07
6.26759e-08
2.83188e-08
1.2876e-08
5.90013e-09
2.71963e-09
1.25225e-09
5.67752e-10
2.4614e-10
9.55893e-11
2.71772e-11
3.5844e-12
1.29828e-11
1.47133e-11
1.289e-11
9.99902e-12
7.01865e-12
4.4716e-12
2.6241e-12
1.35092e-12
4.80745e-13
3.14492e-14
2.7997e-13
3.79062e-13
3.81613e-13
3.54825e-13
3.06704e-13
2.20198e-13
1.92286e-13
1.41191e-13
7.50961e-14
9.53888e-14
6.25164e-14
3.64353e-14
6.1328e-14
1.83831e-14
3.05672e-14
1.75713e-14
2.04026e-14
2.85179e-14
2.58666e-15
9.8084e-15
2.59848e-15
3.06984e-15
1.61543e-14
9.71996e-15
7.84103e-15
7.72472e-15
4.69656e-15
7.69841e-15
1.16846e-15
1.00926e-14
1.12453e-14
6.39734e-16
6.39734e-16
0.04
0.0229481
0.0240638
0.0215333
0.0146905
0.0143346
0.01759
0.0183357
0.0168266
0.0163651
0.0166408
0.0166481
0.0164927
0.0166567
0.0167452
0.0167289
0.0167841
0.016921
0.0169126
0.0168463
0.0168058
0.0167584
0.0166453
0.0165359
0.0164521
0.0163402
0.0162259
0.0161078
0.0160292
0.0159014
0.0158313
0.0157197
0.0156844
0.0155686
0.015552
0.0154454
0.0154352
0.0153179
0.0153033
0.015185
0.0151557
0.0150356
0.0149984
0.0148887
0.014844
0.0147504
0.0147092
0.014636
0.0146013
0.0145513
0.0145305
0.0145044
0.0145007
0.0145008
0.014519
0.0145437
0.0145814
0.0146258
0.0146779
0.014732
0.0147893
0.0148468
0.0149022
0.0149557
0.0150088
0.0150588
0.0151069
0.015156
0.0152053
0.0152522
0.0152999
0.0153489
0.0153955
0.0154401
0.0154884
0.0155392
0.015591
0.0156493
0.0157189
0.0157965
0.0158833
0.0159845
0.0160989
0.0162194
0.0163449
0.0164738
0.0165986
0.0167122
0.0168155
0.0169073
0.0169842
0.0170456
0.0170954
0.017134
0.0171633
0.0171881
0.0172135
0.01724
0.0172669
0.0172921
0.0173155
0.0173368
0.0173577
0.0173782
0.0173982
0.0174156
0.0174297
0.0174426
0.0174592
0.0174805
0.017504
0.0175263
0.0175412
0.0175422
0.0175334
0.0175229
0.0175125
0.0175028
0.017495
0.0174824
0.0174588
0.0174307
0.0174098
0.0174005
0.0174052
0.0174217
0.0174356
0.0174302
0.0174025
0.0173618
0.0173223
0.0173029
0.0173212
0.0173785
0.0174592
0.0175411
0.0176006
0.017615
0.0175724
0.0174772
0.0173432
0.0171867
0.0170273
0.0168834
0.0167655
0.0166766
0.0166184
0.0165893
0.0165825
0.0165918
0.0166132
0.0166425
0.016674
0.0167049
0.016735
0.0167626
0.0167855
0.0168049
0.0168226
0.0168375
0.0168499
0.0168624
0.0168755
0.0168885
0.0169019
0.016917
0.0169332
0.0169496
0.016966
0.0169824
0.0169982
0.0170126
0.017026
0.0170393
0.017053
0.0170682
0.0170867
0.0171095
0.0171375
0.0171712
0.0172109
0.0172562
0.0173062
0.0173606
0.0174186
0.0174795
0.0175427
0.0176077
0.0176739
0.0177411
0.0178089
0.0178775
0.0179465
0.0180156
0.0180843
0.0181516
0.0182166
0.0182784
0.0183371
0.0183931
0.0184469
0.0184984
0.0185467
0.0185896
0.0186245
0.0186492
0.018663
0.0186669
0.0186641
0.0186581
0.0186518
0.0186464
0.0186405
0.018631
0.0186151
0.0185918
0.0185631
0.0185336
0.0185092
0.0184947
0.0184924
0.0185016
0.0185193
0.0185423
0.0185681
0.0185961
0.0186268
0.0186612
0.0187003
0.018745
0.0187961
0.0188556
0.0189261
0.0190112
0.019114
0.0192363
0.0193782
0.0195372
0.019709
0.0198873
0.0200646
0.0202331
0.0203851
0.0205147
0.0206183
0.0206963
0.0207528
0.020795
0.0208319
0.0208713
0.0209176
0.0209705
0.021024
0.0210683
0.0210914
0.0210826
0.0210349
0.0209462
0.0208204
0.0206652
0.0204908
0.0203092
0.0201325
0.0199709
0.0198312
0.0197172
0.0196323
0.0195807
0.0195667
0.0195928
0.01966
0.0197693
0.0199203
0.0201096
0.0203306
0.0205752
0.0208349
0.0211003
0.0213617
0.0216131
0.0218527
0.0220798
0.0222913
0.0224837
0.0226597
0.0228283
0.022996
0.0231587
0.023306
0.0234352
0.0235572
0.0236842
0.0238126
0.0239234
0.0240032
0.0240615
0.024122
0.0241959
0.024267
0.0243075
0.0243115
0.0243062
0.0243275
0.0243804
0.0244321
0.0244505
0.0244488
0.0244821
0.0245849
0.0247044
0.0247083
0.0244956
0.0241351
0.0238902
0.0240619
0.0247296
0.0255631
0.0258895
0.0250861
0.0230813
0.0205305
0.0184715
0.0177462
0.0185608
0.0202885
0.0215957
0.0210998
0.0183195
0.0140281
0.00957932
0.00596106
0.00346138
0.00191293
0.00102026
0.000529751
0.000269148
0.000134173
6.57193e-05
3.16454e-05
1.49805e-05
6.9688e-06
3.18295e-06
1.42516e-06
6.23816e-07
2.65572e-07
1.08868e-07
4.20753e-08
1.45607e-08
3.81816e-09
6.07089e-10
1.32674e-09
1.40249e-09
1.1838e-09
9.12986e-10
6.73354e-10
4.84841e-10
3.43636e-10
2.40818e-10
1.67354e-10
1.1524e-10
7.86892e-11
5.32622e-11
3.57424e-11
2.36392e-11
1.54058e-11
1.00498e-11
6.44995e-12
4.10997e-12
2.60491e-12
1.63498e-12
1.04786e-12
6.17331e-13
4.28488e-13
2.64169e-13
1.30329e-13
1.63169e-13
7.49476e-14
3.2968e-14
7.99408e-14
1.91003e-14
1.45307e-14
2.43429e-14
1.08431e-14
2.88529e-14
1.75062e-14
4.87314e-15
1.39813e-14
1.70245e-14
7.69675e-15
2.93982e-15
1.43498e-14
1.82089e-14
1.56619e-14
5.77246e-15
4.03053e-15
1.80728e-14
2.34569e-14
4.37306e-15
1.02153e-14
1.02153e-14
0.04
0.0241236
0.0219582
0.0188757
0.0199333
0.0220075
0.0209612
0.0194201
0.0197758
0.0204233
0.0199963
0.019575
0.0196872
0.0198576
0.0198182
0.0199282
0.020117
0.0202141
0.020241
0.0203257
0.0203627
0.020328
0.020284
0.020264
0.0202144
0.0201382
0.020089
0.0200289
0.0199808
0.0199017
0.0198893
0.0198187
0.019825
0.0197526
0.019795
0.0197161
0.0197663
0.0196792
0.0197334
0.0196326
0.0196744
0.0195732
0.0196036
0.0195082
0.0195301
0.0194556
0.019475
0.0194254
0.0194485
0.0194273
0.0194577
0.0194621
0.0195025
0.0195311
0.0195836
0.0196306
0.0196939
0.019757
0.0198274
0.0198975
0.0199735
0.0200479
0.020122
0.0201962
0.0202699
0.0203396
0.0204085
0.0204776
0.0205442
0.0206097
0.0206782
0.0207477
0.0208167
0.0208903
0.0209693
0.0210495
0.0211341
0.021227
0.021325
0.0214267
0.0215384
0.0216602
0.0217882
0.0219219
0.022063
0.0222061
0.0223448
0.0224769
0.0226029
0.0227168
0.022815
0.0229
0.0229735
0.0230323
0.0230799
0.0231224
0.023162
0.0231976
0.0232306
0.0232614
0.0232888
0.0233103
0.0233291
0.0233467
0.0233599
0.0233681
0.0233753
0.0233792
0.0233809
0.0233871
0.0233954
0.0233968
0.0233911
0.0233776
0.0233525
0.0233203
0.0232902
0.0232606
0.0232273
0.02319
0.0231479
0.0231001
0.0230552
0.0230239
0.0230063
0.0229955
0.0229843
0.0229612
0.0229181
0.0228609
0.0228071
0.0227723
0.0227679
0.0227982
0.0228533
0.0229102
0.0229452
0.0229405
0.0228851
0.0227781
0.0226318
0.0224646
0.0222932
0.0221326
0.0219953
0.0218873
0.0218077
0.0217546
0.0217253
0.0217141
0.021715
0.0217248
0.0217407
0.0217587
0.0217762
0.0217934
0.0218095
0.0218224
0.0218329
0.0218427
0.021851
0.0218578
0.0218648
0.0218727
0.0218811
0.0218898
0.0218994
0.0219097
0.0219199
0.0219292
0.0219377
0.0219452
0.0219517
0.0219574
0.0219634
0.0219705
0.0219798
0.0219923
0.0220092
0.022031
0.0220581
0.0220907
0.0221284
0.0221706
0.0222167
0.0222658
0.0223169
0.0223693
0.0224224
0.0224761
0.0225302
0.0225849
0.0226401
0.0226953
0.0227499
0.022803
0.022854
0.0229026
0.0229488
0.0229931
0.0230353
0.0230747
0.0231095
0.0231377
0.0231577
0.023169
0.0231724
0.0231692
0.0231611
0.0231494
0.0231343
0.0231159
0.0230932
0.0230656
0.0230323
0.0229937
0.0229514
0.022909
0.022871
0.0228415
0.0228233
0.022816
0.0228171
0.0228228
0.0228301
0.0228374
0.0228457
0.022857
0.022874
0.0228986
0.0229324
0.0229761
0.0230306
0.0230972
0.0231768
0.0232702
0.023377
0.0234958
0.0236239
0.0237574
0.023892
0.024023
0.0241454
0.0242549
0.0243478
0.0244217
0.0244758
0.0245112
0.0245302
0.0245355
0.02453
0.0245155
0.0244924
0.0244599
0.024416
0.0243577
0.0242815
0.024184
0.0240635
0.0239204
0.0237573
0.0235796
0.0233952
0.0232139
0.0230447
0.0228948
0.0227697
0.0226743
0.0226128
0.0225874
0.0225989
0.0226474
0.0227318
0.0228488
0.0229928
0.0231577
0.0233372
0.0235241
0.0237101
0.023888
0.0240548
0.0242098
0.0243514
0.0244764
0.0245852
0.0246837
0.0247781
0.0248669
0.0249424
0.0250007
0.0250493
0.025099
0.0251493
0.0251846
0.0251908
0.0251739
0.0251562
0.02515
0.0251399
0.0250987
0.0250217
0.0249382
0.0248831
0.024858
0.0248272
0.0247596
0.0246711
0.0246186
0.0246374
0.0246794
0.0246249
0.0243795
0.0239906
0.0236824
0.0237383
0.0242666
0.0249931
0.0252874
0.0245337
0.0226343
0.0201925
0.0181842
0.0174133
0.0181086
0.0197276
0.0210303
0.0206596
0.0180695
0.013941
0.00958332
0.00599602
0.00349704
0.00193996
0.00103838
0.000541181
0.000276114
0.000138336
6.81792e-05
3.30907e-05
1.58286e-05
7.46779e-06
3.47819e-06
1.60129e-06
7.29941e-07
3.30234e-07
1.48721e-07
6.691e-08
3.01869e-08
1.37021e-08
6.26759e-09
2.88474e-09
1.32808e-09
6.03585e-10
2.64554e-10
1.08057e-10
4.0494e-11
2.08809e-11
1.99594e-11
1.8361e-11
1.50451e-11
1.12546e-11
7.73319e-12
4.95482e-12
3.009e-12
1.62926e-12
6.53764e-13
3.52188e-13
4.73811e-13
4.72077e-13
4.38003e-13
4.13031e-13
3.07755e-13
2.7213e-13
1.86405e-13
1.1769e-13
1.47628e-13
4.94291e-14
3.47358e-14
7.45853e-14
2.94543e-14
8.87841e-15
1.34589e-14
1.17336e-14
1.51104e-14
3.53313e-15
1.72403e-14
2.40667e-15
1.60961e-14
1.91526e-14
1.0003e-14
6.77667e-15
3.17329e-15
1.58361e-14
2.63201e-14
1.34591e-14
1.01986e-14
1.03056e-14
2.75126e-14
2.18253e-14
2.18253e-14
0.04
0.0259858
0.0272099
0.0270221
0.0264926
0.0237125
0.0220898
0.0231013
0.0237382
0.0226239
0.0218404
0.0221844
0.0223309
0.022015
0.0219243
0.0221779
0.0222686
0.0222975
0.0224363
0.0225962
0.0226213
0.0226492
0.0227111
0.0227356
0.0227066
0.0227012
0.0227114
0.0226834
0.022666
0.0226474
0.0226654
0.0226246
0.0226611
0.022629
0.0226935
0.0226366
0.0227229
0.0226548
0.0227428
0.02265
0.0227365
0.0226345
0.0227051
0.0226056
0.02267
0.0225891
0.0226474
0.0225973
0.022657
0.0226385
0.0227002
0.0227103
0.0227744
0.0228068
0.0228722
0.0229189
0.0229872
0.023045
0.0231133
0.023179
0.0232524
0.0233221
0.0233963
0.0234709
0.0235443
0.0236151
0.0236865
0.0237548
0.0238206
0.0238882
0.0239579
0.0240286
0.0241055
0.0241901
0.0242785
0.0243721
0.0244747
0.0245811
0.0246885
0.0248018
0.0249219
0.0250433
0.0251692
0.025304
0.0254435
0.0255821
0.0257216
0.0258607
0.0259926
0.0261128
0.0262234
0.0263222
0.026406
0.0264756
0.026536
0.0265879
0.0266321
0.0266712
0.0267075
0.0267391
0.0267646
0.0267843
0.0267994
0.0268102
0.0268171
0.0268192
0.0268182
0.0268143
0.0268078
0.0267996
0.0267913
0.0267789
0.0267588
0.026731
0.0266948
0.0266498
0.026602
0.0265551
0.0265052
0.0264502
0.0263932
0.0263346
0.0262762
0.0262263
0.0261902
0.0261614
0.0261306
0.0260922
0.0260411
0.0259773
0.0259132
0.0258659
0.025845
0.0258514
0.0258786
0.0259098
0.0259212
0.025894
0.0258199
0.0256982
0.0255365
0.025351
0.0251608
0.0249798
0.0248178
0.0246825
0.0245765
0.0244962
0.024438
0.0243997
0.0243764
0.0243624
0.0243554
0.0243545
0.0243557
0.0243564
0.0243578
0.0243592
0.024358
0.024355
0.0243523
0.0243489
0.0243444
0.0243402
0.0243372
0.0243349
0.0243323
0.0243299
0.0243277
0.024325
0.0243206
0.0243152
0.0243091
0.0243021
0.0242946
0.024288
0.0242829
0.02428
0.0242804
0.0242851
0.0242946
0.0243092
0.0243293
0.0243546
0.024384
0.0244166
0.0244512
0.0244866
0.0245222
0.0245583
0.024595
0.0246325
0.0246706
0.0247086
0.0247454
0.02478
0.0248124
0.024843
0.0248724
0.0249009
0.0249275
0.0249502
0.0249663
0.0249741
0.0249733
0.0249655
0.0249529
0.024937
0.0249176
0.0248929
0.024861
0.0248207
0.0247726
0.0247186
0.0246607
0.0246003
0.0245385
0.0244772
0.0244192
0.0243681
0.0243268
0.0242961
0.0242742
0.0242574
0.024242
0.0242264
0.0242111
0.0241991
0.0241941
0.0241989
0.0242151
0.0242429
0.0242815
0.0243303
0.0243886
0.024456
0.0245321
0.0246162
0.0247069
0.0248028
0.0249021
0.0250028
0.0251026
0.0251983
0.0252859
0.0253604
0.0254161
0.0254476
0.0254505
0.0254229
0.0253659
0.0252839
0.0251842
0.0250755
0.0249657
0.02486
0.0247585
0.0246572
0.0245494
0.0244285
0.0242896
0.0241311
0.0239563
0.0237732
0.0235925
0.0234245
0.0232778
0.0231584
0.0230706
0.0230163
0.0229959
0.0230087
0.0230531
0.0231261
0.0232235
0.0233413
0.0234756
0.0236212
0.0237703
0.0239156
0.0240534
0.0241831
0.0243041
0.0244131
0.024508
0.0245912
0.024668
0.02474
0.0248025
0.0248523
0.0248936
0.0249345
0.0249743
0.0249993
0.0249975
0.0249766
0.0249593
0.024956
0.0249466
0.0248995
0.0248114
0.0247215
0.0246744
0.0246706
0.0246607
0.0245971
0.0244913
0.0244129
0.0244201
0.0244861
0.0244949
0.0243271
0.0239852
0.0236567
0.0236294
0.0240649
0.0247603
0.0251227
0.0245093
0.0227497
0.0203816
0.0183594
0.0175112
0.0181219
0.0197135
0.0210743
0.0208097
0.0183004
0.0141837
0.00978132
0.00613102
0.00357823
0.00198471
0.00106151
0.000552491
0.000281324
0.000140548
6.89936e-05
3.32982e-05
1.58011e-05
7.37e-06
3.3762e-06
1.51696e-06
6.66882e-07
2.85564e-07
1.18083e-07
4.63199e-08
1.65478e-08
4.82432e-09
1.08702e-09
1.31541e-09
1.39549e-09
1.1896e-09
9.24305e-10
6.85806e-10
4.95321e-10
3.52133e-10
2.4754e-10
1.72276e-10
1.19024e-10
8.15429e-11
5.52904e-11
3.69367e-11
2.45118e-11
1.62183e-11
1.04663e-11
6.77176e-12
4.33946e-12
2.69957e-12
1.72672e-12
1.0808e-12
6.991e-13
4.18453e-13
2.66558e-13
2.13581e-13
1.02746e-13
1.01862e-13
9.4369e-14
3.64836e-14
1.60434e-14
2.67466e-14
2.94154e-14
3.16334e-14
1.07275e-14
1.33343e-14
2.10797e-14
1.30228e-14
4.36218e-15
5.34687e-15
2.94245e-14
2.45712e-14
8.55983e-15
1.00056e-14
3.50668e-15
3.28822e-14
1.76748e-14
8.62575e-15
1.24635e-14
1.62578e-14
1.62578e-14
0.04
0.026724
0.0277839
0.0264193
0.0255909
0.0255356
0.0263939
0.0256214
0.0241137
0.0239881
0.0246419
0.0243375
0.0235995
0.0235467
0.0237627
0.0236706
0.0235392
0.0236986
0.0238491
0.023887
0.0239564
0.0240949
0.0241522
0.0241685
0.0242158
0.0242661
0.024269
0.0242693
0.0243011
0.0243072
0.0243212
0.0243148
0.0243689
0.0243455
0.02441
0.0243753
0.0244702
0.0244022
0.0245049
0.0244173
0.0245208
0.0244079
0.0245042
0.024393
0.024479
0.0243831
0.0244672
0.0244044
0.0244855
0.0244585
0.0245388
0.0245415
0.024617
0.02464
0.0247069
0.0247421
0.0248033
0.0248442
0.0249023
0.0249531
0.025012
0.0250687
0.0251337
0.0251965
0.0252607
0.0253254
0.0253896
0.0254504
0.0255124
0.025576
0.0256407
0.0257113
0.025791
0.0258763
0.025969
0.0260716
0.0261791
0.0262874
0.0264009
0.0265179
0.0266333
0.0267501
0.0268737
0.027
0.027127
0.027258
0.0273939
0.0275281
0.0276569
0.0277801
0.0278962
0.0279983
0.0280866
0.028165
0.0282337
0.02829
0.0283375
0.0283789
0.0284145
0.0284426
0.0284646
0.0284821
0.0284928
0.0284944
0.0284932
0.02849
0.0284808
0.028469
0.0284574
0.0284386
0.0284138
0.0283888
0.0283579
0.0283159
0.0282695
0.0282191
0.0281593
0.0280951
0.0280331
0.0279682
0.0278986
0.0278314
0.0277695
0.0277107
0.0276588
0.0276156
0.0275727
0.0275214
0.0274619
0.0273969
0.0273309
0.0272754
0.0272425
0.0272329
0.0272377
0.0272434
0.0272333
0.0271886
0.0270982
0.0269632
0.0267918
0.0265955
0.0263904
0.0261933
0.0260144
0.0258584
0.0257288
0.0256262
0.0255462
0.0254842
0.0254384
0.0254056
0.0253806
0.0253613
0.0253478
0.025337
0.0253259
0.0253157
0.0253064
0.0252956
0.0252833
0.0252714
0.0252601
0.0252483
0.0252367
0.0252261
0.0252164
0.0252062
0.0251952
0.0251841
0.0251724
0.0251592
0.0251447
0.0251299
0.0251146
0.025099
0.0250842
0.0250711
0.0250603
0.0250528
0.0250497
0.0250514
0.0250581
0.0250698
0.0250859
0.0251052
0.0251267
0.0251495
0.0251728
0.0251963
0.0252202
0.0252446
0.0252691
0.0252932
0.0253164
0.025338
0.0253579
0.0253764
0.025394
0.0254106
0.0254251
0.0254353
0.0254388
0.025434
0.0254214
0.0254034
0.0253827
0.0253604
0.0253353
0.0253037
0.0252618
0.025208
0.0251439
0.0250736
0.0250016
0.0249306
0.0248613
0.0247932
0.0247267
0.024664
0.0246081
0.0245616
0.0245251
0.0244964
0.0244722
0.02445
0.0244292
0.0244115
0.0244002
0.0243984
0.0244081
0.0244295
0.0244617
0.024503
0.0245518
0.0246068
0.0246674
0.0247332
0.0248043
0.024881
0.0249639
0.0250531
0.0251475
0.0252444
0.0253386
0.0254225
0.0254863
0.0255203
0.0255161
0.0254688
0.0253792
0.025254
0.0251052
0.0249482
0.0247981
0.0246664
0.0245576
0.0244684
0.0243897
0.0243101
0.0242185
0.0241069
0.0239733
0.0238223
0.0236646
0.0235121
0.023375
0.0232601
0.0231718
0.0231123
0.0230828
0.0230826
0.0231099
0.0231612
0.0232329
0.0233229
0.0234305
0.0235533
0.0236853
0.0238189
0.0239488
0.0240742
0.0241943
0.024306
0.0244055
0.0244941
0.0245763
0.0246545
0.0247246
0.024782
0.024829
0.024874
0.0249192
0.0249539
0.0249656
0.0249572
0.0249468
0.0249448
0.0249359
0.0248938
0.0248173
0.0247417
0.0247053
0.024705
0.0246929
0.0246245
0.0245135
0.0244296
0.0244331
0.0245031
0.0245301
0.0243925
0.0240766
0.0237455
0.0236714
0.024023
0.02463
0.0249452
0.0243589
0.0226961
0.0204508
0.0185193
0.0176878
0.0182374
0.0197307
0.0210189
0.0207454
0.0182759
0.014204
0.00982381
0.00617382
0.00361153
0.00200749
0.00107605
0.000561414
0.000286685
0.000143731
7.0873e-05
3.44073e-05
1.64577e-05
7.76113e-06
3.61125e-06
1.65968e-06
7.54508e-07
3.39971e-07
1.5222e-07
6.79329e-08
3.03158e-08
1.35644e-08
6.09248e-09
2.74265e-09
1.23027e-09
5.45836e-10
2.40074e-10
1.11466e-10
6.62542e-11
5.09659e-11
4.13846e-11
3.25618e-11
2.44051e-11
1.74215e-11
1.20697e-11
8.05014e-12
4.87676e-12
2.72803e-12
1.5733e-12
8.72142e-13
4.85331e-13
4.48501e-13
4.49338e-13
3.40177e-13
3.09661e-13
2.30321e-13
1.88722e-13
1.67728e-13
6.22475e-14
9.72358e-14
7.26221e-14
3.87502e-14
2.66151e-14
2.65533e-14
8.34633e-15
8.25174e-15
2.6534e-14
9.15324e-15
8.81065e-15
2.37241e-14
2.04628e-14
6.05631e-15
1.14102e-14
9.24559e-15
3.22156e-14
2.40193e-14
9.93949e-15
1.00105e-14
2.2815e-14
2.28774e-14
1.17367e-14
8.98925e-15
8.98925e-15
0.04
0.0246938
0.025159
0.0263361
0.0270564
0.0268217
0.0263347
0.0255835
0.0258386
0.0261444
0.0255475
0.0248419
0.0249521
0.0251091
0.0247377
0.0244316
0.0245373
0.0246523
0.0245836
0.0246191
0.0247764
0.0248674
0.0248881
0.0249655
0.025047
0.0250716
0.0250871
0.0251337
0.0251683
0.025169
0.0251979
0.0252132
0.0252521
0.0252308
0.0252984
0.0252675
0.0253499
0.0252849
0.0253942
0.0253016
0.025409
0.0252927
0.0254016
0.0252761
0.025375
0.025268
0.0253651
0.0252887
0.025384
0.0253473
0.0254374
0.0254312
0.0255111
0.0255222
0.0255869
0.0256078
0.0256574
0.0256822
0.0257279
0.0257599
0.0258044
0.0258485
0.0259009
0.025951
0.0260079
0.0260652
0.0261217
0.0261787
0.0262387
0.0262987
0.0263634
0.0264368
0.0265168
0.0266042
0.0267033
0.026809
0.0269167
0.0270297
0.0271469
0.0272599
0.0273716
0.027488
0.0276049
0.0277184
0.0278373
0.0279631
0.0280887
0.0282133
0.0283412
0.0284662
0.0285806
0.0286841
0.02878
0.0288649
0.0289367
0.0289974
0.02905
0.0290916
0.0291234
0.0291487
0.0291678
0.0291781
0.0291807
0.029176
0.0291661
0.0291539
0.0291402
0.0291219
0.0290992
0.0290718
0.0290374
0.0289973
0.0289554
0.0289088
0.0288543
0.0287937
0.0287271
0.0286532
0.0285778
0.0285058
0.0284346
0.0283637
0.0282977
0.0282361
0.0281763
0.0281203
0.0280689
0.0280153
0.0279552
0.0278923
0.0278311
0.0277759
0.0277347
0.0277121
0.0277021
0.0276916
0.0276662
0.027612
0.0275175
0.0273792
0.0272045
0.027006
0.0267964
0.0265895
0.0263986
0.0262303
0.0260856
0.0259655
0.0258697
0.0257934
0.025732
0.0256846
0.0256488
0.0256197
0.0255959
0.0255778
0.0255623
0.0255468
0.0255322
0.0255187
0.0255043
0.0254887
0.0254739
0.0254601
0.0254463
0.0254326
0.0254197
0.0254077
0.0253952
0.0253818
0.0253684
0.0253546
0.0253395
0.0253236
0.0253074
0.0252908
0.0252738
0.0252575
0.0252426
0.0252298
0.0252204
0.0252156
0.0252157
0.0252206
0.0252298
0.0252423
0.0252567
0.0252724
0.0252891
0.0253065
0.0253247
0.0253432
0.0253615
0.0253787
0.0253944
0.0254088
0.0254227
0.0254367
0.0254511
0.025465
0.0254761
0.0254815
0.025479
0.0254682
0.0254513
0.0254318
0.0254126
0.0253939
0.0253723
0.025342
0.0252978
0.0252384
0.0251667
0.0250894
0.0250127
0.0249403
0.0248719
0.024805
0.0247378
0.0246712
0.0246084
0.0245537
0.0245099
0.0244769
0.0244522
0.0244329
0.0244171
0.0244047
0.0243975
0.024398
0.0244079
0.024428
0.0244578
0.0244961
0.0245414
0.0245921
0.0246472
0.0247063
0.0247701
0.02484
0.0249182
0.025006
0.0251035
0.0252074
0.0253115
0.0254056
0.0254769
0.0255125
0.0255017
0.025439
0.0253255
0.0251707
0.0249903
0.0248041
0.0246313
0.0244869
0.024378
0.0243026
0.024251
0.0242099
0.024165
0.0241041
0.0240202
0.0239136
0.0237921
0.0236669
0.023549
0.0234459
0.0233622
0.0233008
0.0232628
0.0232479
0.0232544
0.0232796
0.0233216
0.0233811
0.0234601
0.0235577
0.0236682
0.023784
0.0239009
0.0240188
0.0241372
0.0242508
0.0243533
0.0244435
0.0245261
0.0246048
0.0246776
0.0247403
0.0247937
0.0248433
0.0248896
0.0249236
0.0249367
0.0249341
0.0249321
0.0249368
0.0249294
0.0248838
0.0248009
0.0247208
0.0246874
0.0246995
0.0247018
0.024634
0.024498
0.0243714
0.0243438
0.0244259
0.0245117
0.0244456
0.0241633
0.0237952
0.0236188
0.0238453
0.0243696
0.0247017
0.0242376
0.0227399
0.0206112
0.0186944
0.0177928
0.0182516
0.0196992
0.0210146
0.020816
0.0184149
0.0143672
0.00996758
0.00627835
0.00367813
0.00204623
0.00109717
0.000572341
0.00029206
0.000146226
7.19391e-05
3.48003e-05
1.65553e-05
7.74339e-06
3.5588e-06
1.60536e-06
7.09364e-07
3.05917e-07
1.27858e-07
5.10661e-08
1.89118e-08
6.06653e-09
1.65527e-09
1.28423e-09
1.34284e-09
1.16253e-09
9.13668e-10
6.8315e-10
4.97044e-10
3.55187e-10
2.50734e-10
1.75473e-10
1.21592e-10
8.33646e-11
5.65273e-11
3.81529e-11
2.54588e-11
1.66743e-11
1.09339e-11
6.97708e-12
4.39311e-12
2.8654e-12
1.79657e-12
1.11222e-12
7.13415e-13
4.65237e-13
2.94072e-13
1.87427e-13
1.44022e-13
8.39863e-14
5.19085e-14
4.08999e-14
4.58009e-14
4.72624e-14
1.33296e-14
1.48032e-14
2.21036e-14
1.60149e-14
1.20997e-14
5.72731e-15
1.87785e-14
3.48242e-14
8.55368e-15
1.03342e-14
8.8354e-15
2.15465e-14
3.60815e-14
5.37098e-15
8.4285e-15
1.29098e-14
6.37248e-15
1.11238e-14
1.11238e-14
0.04
0.0247735
0.0254506
0.0258749
0.0260093
0.0259895
0.0260862
0.0264347
0.0266469
0.0259532
0.0256104
0.0259867
0.0260268
0.02541
0.0251327
0.0253129
0.0252671
0.0249992
0.0249903
0.025163
0.0251915
0.0251735
0.0252725
0.0253775
0.0253898
0.0254135
0.0254823
0.0255193
0.0255233
0.0255482
0.0255944
0.0255927
0.0256177
0.0256139
0.0256728
0.0256282
0.0257063
0.0256498
0.0257518
0.0256535
0.0257695
0.0256538
0.0257647
0.0256345
0.0257457
0.0256312
0.0257344
0.0256526
0.0257562
0.0257112
0.0258061
0.0257932
0.0258725
0.0258748
0.0259355
0.025943
0.0259844
0.0259985
0.0260318
0.0260505
0.026087
0.0261197
0.0261606
0.0262038
0.026255
0.026305
0.0263592
0.0264173
0.0264775
0.0265406
0.0266122
0.0266896
0.0267738
0.026869
0.026972
0.0270775
0.0271898
0.0273067
0.0274205
0.027533
0.0276495
0.027763
0.0278714
0.0279831
0.0280999
0.0282148
0.0283314
0.0284548
0.0285807
0.0287004
0.0288146
0.0289241
0.0290253
0.0291135
0.0291918
0.0292607
0.0293169
0.0293583
0.0293896
0.0294132
0.0294282
0.0294314
0.0294263
0.0294155
0.0293975
0.0293751
0.0293562
0.0293347
0.029303
0.0292661
0.029225
0.0291736
0.02912
0.0290703
0.0290128
0.0289429
0.0288698
0.0287921
0.028707
0.0286259
0.0285559
0.0284885
0.0284206
0.028357
0.0282961
0.0282334
0.0281732
0.0281186
0.0280643
0.0280077
0.0279534
0.0279054
0.0278652
0.0278349
0.0278143
0.0277941
0.0277593
0.0276977
0.0276016
0.0274662
0.0272936
0.0270955
0.0268868
0.0266787
0.0264815
0.0263053
0.026154
0.0260254
0.0259187
0.0258338
0.0257658
0.0257099
0.025666
0.0256327
0.0256053
0.0255818
0.0255637
0.0255484
0.0255326
0.0255172
0.0255032
0.0254889
0.0254737
0.0254589
0.0254457
0.0254332
0.0254203
0.0254082
0.0253975
0.0253868
0.0253753
0.0253645
0.0253539
0.0253422
0.0253297
0.025317
0.0253036
0.0252895
0.0252758
0.0252634
0.0252532
0.0252463
0.0252437
0.0252456
0.0252514
0.0252605
0.0252719
0.0252847
0.0252985
0.0253132
0.0253285
0.0253438
0.0253585
0.0253723
0.025385
0.0253969
0.025409
0.0254219
0.0254353
0.0254479
0.0254572
0.0254608
0.0254568
0.0254457
0.0254301
0.0254132
0.0253975
0.0253823
0.0253636
0.0253349
0.0252911
0.0252307
0.0251576
0.0250789
0.0250018
0.0249301
0.0248631
0.0247973
0.0247297
0.0246603
0.0245929
0.0245332
0.024486
0.0244528
0.0244317
0.0244189
0.0244109
0.0244058
0.0244038
0.0244066
0.0244162
0.0244342
0.024461
0.0244962
0.0245388
0.0245874
0.0246411
0.0246997
0.0247639
0.0248353
0.0249161
0.0250074
0.0251081
0.0252139
0.0253168
0.0254055
0.0254671
0.025489
0.0254622
0.025383
0.0252542
0.0250858
0.0248936
0.024697
0.024515
0.024363
0.0242504
0.0241779
0.0241387
0.0241209
0.0241105
0.0240932
0.0240582
0.0240008
0.0239239
0.0238354
0.0237446
0.0236586
0.0235821
0.0235187
0.0234705
0.0234388
0.0234227
0.0234202
0.0234306
0.0234568
0.0235035
0.0235718
0.0236572
0.0237521
0.0238528
0.0239599
0.0240729
0.0241852
0.0242883
0.0243797
0.0244635
0.0245438
0.0246193
0.0246864
0.0247452
0.0247996
0.0248486
0.0248842
0.0249012
0.0249067
0.0249145
0.0249255
0.024919
0.0248714
0.0247888
0.0247132
0.0246879
0.0247105
0.0247214
0.0246525
0.0244984
0.0243417
0.0242942
0.0243906
0.0245267
0.0245196
0.0242648
0.0238676
0.0236084
0.0237261
0.0241599
0.0244683
0.0240712
0.0227043
0.020705
0.0188612
0.0179634
0.0183777
0.0197649
0.0210347
0.020822
0.0184316
0.0143985
0.0100035
0.00630926
0.00370064
0.00206113
0.00110651
0.000578033
0.000295478
0.000148264
7.31531e-05
3.55261e-05
1.69925e-05
8.00941e-06
3.72261e-06
1.70751e-06
7.73848e-07
3.47064e-07
1.54351e-07
6.82315e-08
3.00536e-08
1.32164e-08
5.80664e-09
2.5469e-09
1.11731e-09
4.99005e-10
2.44656e-10
1.48804e-10
1.09026e-10
8.4588e-11
6.50379e-11
4.85462e-11
3.53307e-11
2.5189e-11
1.71233e-11
1.10515e-11
7.10167e-12
4.43988e-12
2.52157e-12
1.46679e-12
8.96136e-13
5.29791e-13
3.87037e-13
3.77376e-13
2.81808e-13
2.2425e-13
1.89256e-13
1.11256e-13
1.21292e-13
7.25522e-14
8.73001e-15
6.70563e-14
3.33583e-14
2.91857e-15
2.35456e-14
1.25221e-14
2.27946e-14
1.05028e-14
3.02368e-14
8.70449e-15
1.29741e-14
2.74301e-15
3.09476e-14
3.14021e-14
5.00111e-15
1.78394e-14
1.10773e-14
3.27382e-14
1.22429e-14
3.51981e-15
9.52988e-15
6.93822e-15
6.93822e-15
0.04
0.0254179
0.0259065
0.0255444
0.0258589
0.0261715
0.0262677
0.0262113
0.0260713
0.0260983
0.0264287
0.0262503
0.0257852
0.0257294
0.025913
0.0256868
0.025336
0.0253332
0.0254528
0.0253742
0.0252993
0.0254013
0.0254967
0.025489