# vtk DataFile Version 3.0
LBM output step 310
ASCII
DATASET STRUCTURED_POINTS
DIMENSIONS 400 100 1
ORIGIN 0 0 0
SPACING 1 1 1
POINT_DATA 40000
SCALARS velocity_magnitude double 1
LOOKUP_TABLE default
0
0
0
0
0
0
0
0
0
0
0
0
0
0
0
0
0
0
0
0
0
0
0
0
0
0
0
0
0
0
0
0
0
0
0
0
0
0
0
0
0
0
0
0
0
0
0
0
0
0
0
0
0
0
0
0
0
0
0
0
0
0
0
0
0
0
0
0
0
0
0
0
0
0
0
0
0
0
0
0
0
0
0
0
0
0
0
0
0
0
0
0
0
0
0
0
0
0
0
0
0
0
0
0
0
0
0
0
0
0
0
0
0
0
0
0
0
0
0
0
0
0
0
0
0
0
0
0
0
0
0
0
0
0
0
0
0
0
0
0
0
0
0
0
0
0
0
0
0
0
0
0
0
0
0
0
0
0
0
0
0
0
0
0
0
0
0
0
0
0
0
0
0
0
0
0
0
0
0
0
0
0
0
0
0
0
0
0
0
0
0
0
0
0
0
0
0
0
0
0
0
0
0
0
0
0
0
0
0
0
0
0
0
0
0
0
0
0
0
0
0
0
0
0
0
0
0
0
0
0
0
0
0
0
0
0
0
0
0
0
0
0
0
0
0
0
0
0
0
0
0
0
0
0
0
0
0
0
0
0
0
0
0
0
0
0
0
0
0
0
0
0
0
0
0
0
0
0
0
0
0
0
0
0
0
0
0
0
0
0
0
0
0
0
0
0
0
0
0
0
0
0
0
0
0
0
0
0
0
0
0
0
0
0
0
0
0
0
0
0
0
0
0
0
0
0
0
0
0
0
0
0
0
0
0
0
0
0
0
0
0
0
0
0
0
0
0
0
0
0
0
0
0
0
0
0
0
0
0
0
0
0
0
0
0
0
0
0
0
0
0
0
0
0
0
0
0
0
0
0
0
0
0
0
0
0
0
0
0
0
0
0
0
0
0
0
0
0
0
0
0.04
0.0146651
0.00935257
0.0154527
0.0175963
0.0171547
0.0144664
0.0144084
0.0147443
0.0150283
0.0148101
0.0148335
0.0144576
0.0139878
0.0133788
0.0126298
0.0115321
0.0102188
0.00886686
0.00749616
0.00637264
0.00561989
0.00544259
0.00567187
0.00628845
0.00699808
0.00766633
0.00808573
0.00828726
0.00829239
0.00820971
0.00812585
0.00811074
0.00816719
0.00826234
0.00836508
0.00844402
0.00848835
0.00849921
0.00849567
0.00848916
0.0085033
0.00856198
0.00869595
0.00891786
0.00922384
0.00957919
0.00993146
0.010221
0.010407
0.0104777
0.0104613
0.0104077
0.0103727
0.0104002
0.0105129
0.0106998
0.0109294
0.0111646
0.0113742
0.0115397
0.0116647
0.0117642
0.0118509
0.0119347
0.0120277
0.0121339
0.0122509
0.0123818
0.0125315
0.0126961
0.0128697
0.0130469
0.0132144
0.0133555
0.0134608
0.013529
0.0135584
0.0135538
0.0135283
0.0134901
0.0134412
0.013389
0.01334
0.0132967
0.0132599
0.0132346
0.0132245
0.0132274
0.0132404
0.0132662
0.0133012
0.0133393
0.0133789
0.013422
0.0134655
0.0135061
0.0135454
0.0135871
0.0136263
0.0136617
0.0136984
0.0137354
0.0137677
0.0137998
0.0138329
0.0138642
0.0138934
0.013924
0.0139546
0.0139821
0.0140091
0.0140376
0.014062
0.0140855
0.0141124
0.0141389
0.0141656
0.0141955
0.0142261
0.0142565
0.0142889
0.0143265
0.0143682
0.0144141
0.014465
0.0145161
0.0145634
0.0146104
0.0146609
0.0147148
0.0147739
0.0148434
0.0149207
0.0149971
0.0150706
0.0151446
0.0152224
0.0153088
0.0154074
0.0155183
0.0156309
0.0157146
0.0157412
0.0157119
0.0156404
0.0155133
0.0153037
0.0150309
0.0147485
0.014466
0.0141549
0.0138502
0.0136618
0.0136429
0.0137063
0.0137297
0.0137118
0.0137655
0.01395
0.0141721
0.014314
0.0144281
0.0147227
0.0153108
0.0160098
0.0164692
0.0165334
0.0164627
0.0167553
0.0176849
0.0189367
0.0197483
0.0195826
0.0187584
0.0183826
0.0195521
0.0223594
0.0253604
0.0262117
0.0234834
0.0179699
0.0118896
0.00699977
0.00378611
0.00193015
0.000942839
0.000445764
0.000204819
9.15531e-05
4.00682e-05
1.71131e-05
7.16245e-06
2.94658e-06
1.09708e-06
5.14589e-07
2.79816e-07
2.8935e-07
1.74039e-07
2.24175e-07
2.12321e-07
1.42824e-07
2.50608e-07
2.22936e-08
1.73347e-07
1.26844e-07
4.14655e-08
1.1558e-07
4.15843e-08
5.10625e-08
4.64665e-08
7.14291e-09
2.27448e-08
3.74146e-09
7.70244e-09
3.78079e-09
1.06937e-09
7.06977e-10
6.27402e-10
7.55203e-10
4.96717e-10
3.72109e-10
3.25548e-10
2.74306e-10
2.11949e-10
1.56557e-10
1.13596e-10
8.10146e-11
5.45097e-11
3.32497e-11
1.75819e-11
8.73324e-12
9.62563e-12
1.07598e-11
1.02096e-11
9.85925e-12
8.82036e-12
7.25893e-12
6.15209e-12
5.18954e-12
3.68611e-12
2.0297e-12
9.75299e-13
6.16729e-13
7.01062e-13
5.88749e-13
1.78522e-13
2.2571e-13
1.92587e-13
3.48609e-14
9.03721e-14
2.10918e-14
9.90784e-14
7.4253e-14
2.71208e-14
2.53589e-14
3.34634e-14
4.51108e-14
3.99504e-14
3.33593e-14
3.18208e-14
3.41952e-14
3.35039e-14
3.02874e-14
2.98959e-14
2.97223e-14
2.61988e-14
2.62717e-14
2.48525e-14
2.17447e-14
2.12978e-14
2.03254e-14
1.75627e-14
1.61599e-14
1.50549e-14
1.3307e-14
1.16439e-14
1.10258e-14
9.40945e-15
8.02508e-15
7.75028e-15
6.97909e-15
5.47708e-15
4.78453e-15
4.28782e-15
3.49054e-15
3.5347e-15
2.49368e-15
2.17559e-15
1.43157e-15
2.16443e-15
9.97368e-16
1.03067e-15
6.46063e-16
7.95102e-16
4.86181e-16
6.30877e-16
2.84516e-16
4.78897e-16
4.6227e-16
4.42474e-16
3.26073e-16
2.9197e-16
1.54731e-16
1.87799e-16
2.72037e-16
3.6959e-16
2.35922e-16
2.69391e-16
1.31656e-16
4.38854e-17
0
0
0
0
0
0
0
0
0
0
0
0
0
0
0
0
0
0
0
0
0
0
0
0
0
0
0
0
0
0
0
0
0
0
0
0
0
0
0
0
0
0
0
0
0
0
0
0
0
0
0
0
0
0
0
0
0
0
0
0
0
0
0
0
0
0
0
0
0
0
0
0
0
0
0
0
0
0
0
0
0
0
0
0
0
0
0
0
0
0.04
0.0225795
0.0231343
0.0206306
0.0141892
0.0144862
0.0180375
0.0190206
0.0179626
0.0180658
0.0187649
0.0189733
0.0187946
0.0186425
0.018183
0.0173114
0.016346
0.0151774
0.0139078
0.0124979
0.011529
0.0107656
0.0105905
0.0107067
0.0113058
0.0118898
0.012531
0.0129555
0.0132899
0.0134211
0.0135297
0.0136095
0.0137366
0.0138764
0.014049
0.0142138
0.0143592
0.0144815
0.0145925
0.0146974
0.0148077
0.0149438
0.0151273
0.0153731
0.0156873
0.0160594
0.0164564
0.0168373
0.0171619
0.0174084
0.0175769
0.0176865
0.0177692
0.017862
0.0179932
0.0181741
0.0184038
0.018668
0.0189401
0.019199
0.0194364
0.0196481
0.0198342
0.0200041
0.0201691
0.0203328
0.0205027
0.0206908
0.0208985
0.0211206
0.0213575
0.0216031
0.0218415
0.022061
0.0222589
0.0224283
0.0225619
0.0226644
0.0227455
0.0228027
0.0228368
0.0228596
0.0228781
0.0228883
0.0228982
0.0229188
0.022948
0.0229798
0.0230205
0.0230717
0.0231259
0.0231801
0.0232404
0.0233029
0.0233623
0.0234216
0.0234819
0.0235377
0.0235897
0.0236384
0.0236825
0.023722
0.0237578
0.0237889
0.023816
0.0238394
0.0238591
0.0238737
0.0238854
0.0238945
0.0238986
0.0238993
0.0239006
0.0238977
0.0238882
0.0238802
0.0238735
0.0238595
0.0238466
0.0238411
0.0238319
0.0238186
0.0238121
0.0238084
0.0238016
0.0237986
0.0238044
0.0238107
0.023815
0.0238248
0.023838
0.0238451
0.0238525
0.0238695
0.0238888
0.0239017
0.0239144
0.0239288
0.0239338
0.0239268
0.0239195
0.023914
0.0238902
0.0238279
0.0237302
0.0236025
0.0234224
0.0231655
0.0228475
0.0225133
0.0221778
0.0218191
0.0214559
0.0211798
0.0210522
0.0210079
0.0209316
0.0208182
0.0207802
0.0208776
0.0210172
0.0210786
0.0211028
0.0212859
0.0217405
0.0222946
0.0226029
0.0225078
0.0222769
0.0224085
0.0231447
0.0241426
0.0246533
0.0241845
0.023081
0.0224197
0.0232419
0.025621
0.0281457
0.0285008
0.0252511
0.0192062
0.0126547
0.00742053
0.00399629
0.00202842
0.000986078
0.000462996
0.000211303
9.35359e-05
4.00967e-05
1.6721e-05
6.80773e-06
2.75963e-06
1.07307e-06
3.38112e-07
2.80437e-07
1.11427e-07
2.83713e-07
1.71793e-07
9.85245e-08
2.17653e-07
1.21985e-07
1.58271e-07
1.27767e-07
8.48447e-08
9.38002e-08
3.52298e-08
5.80399e-08
3.50182e-08
2.72889e-08
2.72677e-08
9.04155e-09
1.24184e-08
2.64494e-09
4.11371e-09
1.48259e-09
1.01588e-09
4.15739e-10
3.43224e-10
3.90366e-10
3.53191e-10
3.36777e-10
3.42104e-10
3.40033e-10
3.23962e-10
2.96857e-10
2.66106e-10
2.34853e-10
2.05254e-10
1.78228e-10
1.5245e-10
1.26095e-10
1.00555e-10
7.82175e-11
6.00408e-11
4.54881e-11
3.37313e-11
2.41489e-11
1.64339e-11
1.05787e-11
6.67868e-12
4.38487e-12
2.98092e-12
1.80389e-12
8.4648e-13
3.36502e-13
2.28905e-13
3.05439e-13
2.41945e-13
9.39967e-14
7.67173e-14
7.02631e-14
9.38077e-14
9.31413e-14
7.35539e-14
5.09111e-14
5.48082e-14
6.50882e-14
5.53113e-14
4.53751e-14
5.18572e-14
4.76017e-14
4.03077e-14
4.30148e-14
4.25591e-14
3.38568e-14
3.47749e-14
3.5596e-14
3.05636e-14
2.67414e-14
2.90267e-14
2.52069e-14
2.22447e-14
2.25567e-14
2.07627e-14
1.67184e-14
1.70591e-14
1.58722e-14
1.30122e-14
1.18844e-14
1.17694e-14
9.30782e-15
9.13074e-15
7.99049e-15
6.50489e-15
6.08983e-15
5.65499e-15
4.59978e-15
4.07083e-15
2.89983e-15
3.5192e-15
2.14907e-15
2.4678e-15
1.69523e-15
1.52211e-15
1.46401e-15
1.29594e-15
9.08684e-16
8.12488e-16
6.0457e-16
7.58088e-16
4.56414e-16
5.20926e-16
1.7513e-16
3.48416e-16
3.28133e-16
6.17717e-17
1.35353e-16
7.07631e-17
5.89806e-17
0
0
0
0
0
0
0
0
0
0
0
0
0
0
0
0
0
0
0
0
0
0
0
0
0
0
0
0
0
0
0
0
0
0
0
0
0
0
0
0
0
0
0
0
0
0
0
0
0
0
0
0
0
0
0
0
0
0
0
0
0
0
0
0
0
0
0
0
0
0
0
0
0
0
0
0
0
0
0
0
0
0
0
0
0
0
0
0
0
0.04
0.0241655
0.0217287
0.0184931
0.0195962
0.0217472
0.0207172
0.0194923
0.0203108
0.0214158
0.0213516
0.0212245
0.0214318
0.0213975
0.0208905
0.0202142
0.0194628
0.0183678
0.0173146
0.0162663
0.0156313
0.0150534
0.0151018
0.0152628
0.0158329
0.0162422
0.0168193
0.017156
0.0175309
0.0177436
0.0180211
0.0182123
0.0184272
0.0185901
0.0187466
0.0188536
0.0189519
0.0190432
0.0191457
0.019264
0.0194153
0.0196083
0.019849
0.0201364
0.0204576
0.0207878
0.021098
0.0213664
0.0215833
0.0217556
0.0218992
0.0220314
0.0221681
0.0223208
0.0224909
0.0226773
0.0228794
0.0230903
0.0233008
0.0235095
0.0237159
0.0239133
0.0240999
0.0242786
0.0244491
0.0246143
0.0247865
0.0249751
0.0251793
0.0253968
0.0256246
0.0258481
0.0260534
0.0262382
0.0264016
0.0265399
0.0266565
0.0267571
0.0268427
0.0269099
0.0269632
0.0270076
0.0270432
0.0270724
0.0271055
0.0271434
0.0271821
0.0272225
0.0272686
0.0273148
0.0273576
0.0274005
0.0274469
0.0274917
0.0275332
0.0275753
0.0276183
0.0276553
0.0276865
0.0277154
0.0277407
0.0277571
0.0277674
0.0277754
0.0277768
0.0277683
0.0277569
0.0277416
0.0277151
0.0276823
0.027651
0.0276122
0.0275644
0.0275194
0.0274715
0.0274111
0.0273506
0.0272912
0.0272237
0.0271541
0.0270896
0.0270235
0.0269529
0.0268851
0.0268203
0.0267519
0.0266871
0.0266338
0.026584
0.0265329
0.0264855
0.0264363
0.0263759
0.0263125
0.0262546
0.0261917
0.0261178
0.0260377
0.0259428
0.0258186
0.0256763
0.0255418
0.0254152
0.0252775
0.0251312
0.0249862
0.0248153
0.0245783
0.024282
0.0239699
0.0236527
0.0232961
0.0228995
0.0225364
0.0222738
0.0220816
0.0218728
0.0216408
0.0214892
0.0214849
0.021543
0.0215267
0.0214497
0.0214989
0.0218044
0.022229
0.022454
0.0223147
0.0220414
0.0220937
0.0226967
0.0235388
0.023957
0.0235167
0.0225022
0.0218544
0.0225477
0.0247464
0.0272238
0.0277694
0.0248606
0.019116
0.0127149
0.00751147
0.00406926
0.00207527
0.00101428
0.000479429
0.000219972
9.86958e-05
4.31654e-05
1.83115e-05
7.49371e-06
2.96699e-06
1.3934e-06
7.75943e-07
3.00619e-07
2.7036e-07
1.21781e-07
1.31536e-07
1.42475e-07
1.32851e-07
1.01369e-07
1.43867e-07
6.32522e-08
8.71874e-08
3.89327e-08
3.88468e-08
2.45023e-08
3.92843e-08
1.25867e-08
2.43384e-08
9.01977e-09
8.93238e-09
5.12808e-09
1.98578e-09
1.85879e-09
3.57624e-10
5.29644e-10
5.66354e-11
8.42615e-11
1.47575e-11
4.50076e-11
8.46303e-11
1.19711e-10
1.37851e-10
1.45118e-10
1.43635e-10
1.37868e-10
1.31037e-10
1.22388e-10
1.10769e-10
9.71124e-11
8.10974e-11
6.4545e-11
5.08244e-11
4.02057e-11
3.06572e-11
2.19393e-11
1.49633e-11
1.00675e-11
6.84685e-12
4.54782e-12
2.75093e-12
1.40908e-12
6.63196e-13
4.70697e-13
3.89679e-13
2.25363e-13
1.33337e-13
5.80377e-14
7.29293e-14
9.50256e-14
5.83468e-14
4.92422e-14
3.34448e-14
3.09541e-14
3.55067e-14
3.60107e-14
2.52679e-14
2.19284e-14
2.42908e-14
2.24156e-14
1.75236e-14
1.89859e-14
1.77398e-14
1.37692e-14
1.35115e-14
1.50203e-14
1.12969e-14
9.774e-15
1.08364e-14
9.78942e-15
8.50665e-15
8.8273e-15
7.84515e-15
6.31516e-15
6.82356e-15
7.0702e-15
5.2092e-15
4.93716e-15
5.18224e-15
4.21533e-15
4.01096e-15
3.9718e-15
3.24514e-15
2.98371e-15
3.30128e-15
2.34765e-15
2.38169e-15
1.76102e-15
2.08448e-15
1.52834e-15
1.15766e-15
1.2875e-15
9.76044e-16
8.77194e-16
8.34696e-16
7.63286e-16
5.94411e-16
5.51686e-16
4.07095e-16
3.68497e-16
1.35486e-16
4.01573e-16
2.19098e-16
1.42247e-16
1.98609e-16
3.19867e-17
4.66766e-17
4.81991e-17
0
0
0
0
0
0
0
0
0
0
0
0
0
0
0
0
0
0
0
0
0
0
0
0
0
0
0
0
0
0
0
0
0
0
0
0
0
0
0
0
0
0
0
0
0
0
0
0
0
0
0
0
0
0
0
0
0
0
0
0
0
0
0
0
0
0
0
0
0
0
0
0
0
0
0
0
0
0
0
0
0
0
0
0
0
0
0
0
0
0.04
0.0260914
0.0273674
0.0269967
0.0262739
0.0234568
0.0219206
0.0230705
0.0237096
0.0227824
0.022277
0.0228781
0.0230546
0.022584
0.0221081
0.021676
0.0209103
0.0198929
0.0191341
0.0183791
0.0179458
0.017576
0.0177827
0.0178576
0.0182664
0.0184411
0.0188646
0.0190472
0.0194471
0.0197572
0.0201996
0.0205048
0.020812
0.0209799
0.0210879
0.0211169
0.021156
0.0212051
0.0212963
0.0214349
0.0216306
0.0218761
0.0221642
0.0224794
0.02279
0.0230627
0.0232775
0.0234315
0.0235418
0.0236429
0.0237626
0.0239181
0.0241107
0.0243234
0.0245326
0.024724
0.0248911
0.0250358
0.0251709
0.0253151
0.0254754
0.0256493
0.0258332
0.0260168
0.0261887
0.0263525
0.0265188
0.0266916
0.0268745
0.0270675
0.0272592
0.0274343
0.027587
0.0277175
0.0278241
0.0279125
0.0279956
0.0280734
0.0281417
0.028204
0.0282623
0.0283096
0.0283468
0.0283828
0.0284191
0.0284493
0.0284784
0.0285103
0.0285377
0.0285569
0.0285769
0.0285964
0.0286096
0.0286208
0.0286356
0.028648
0.0286568
0.0286651
0.0286725
0.0286739
0.0286712
0.0286648
0.0286514
0.0286322
0.0286096
0.0285792
0.0285414
0.0285005
0.0284538
0.0283977
0.028339
0.0282774
0.0282063
0.0281319
0.0280593
0.0279785
0.0278912
0.0278073
0.0277197
0.0276224
0.0275279
0.0274366
0.0273386
0.0272407
0.0271512
0.0270618
0.026972
0.0268916
0.0268173
0.0267399
0.0266625
0.0265858
0.0265011
0.0264102
0.0263223
0.0262314
0.0261238
0.0259969
0.0258497
0.0256701
0.0254633
0.0252629
0.0250895
0.0249318
0.0247824
0.0246495
0.0245199
0.0243516
0.0241353
0.0239127
0.023698
0.0234394
0.0231032
0.0227402
0.0224206
0.0221428
0.0218607
0.0215911
0.0214321
0.0214341
0.0214964
0.0214626
0.021336
0.0213264
0.0216055
0.0220508
0.0223145
0.0221904
0.0218932
0.0219023
0.0224835
0.0233527
0.0238341
0.0234511
0.0224493
0.0217526
0.0223625
0.0245335
0.0271269
0.0279038
0.0252004
0.0195197
0.0130496
0.00772997
0.00419069
0.0021352
0.00104112
0.000490829
0.000224069
9.93562e-05
4.29948e-05
1.82265e-05
7.51297e-06
2.87496e-06
8.99729e-07
2.20135e-07
3.87552e-07
2.70772e-07
1.92446e-07
1.201e-07
2.29016e-07
1.22837e-07
2.11332e-07
1.13111e-07
1.00278e-07
8.47127e-08
5.89584e-08
4.07154e-08
7.11793e-08
1.34345e-08
4.32234e-08
1.60686e-08
1.54212e-08
9.65698e-09
3.20935e-09
3.54766e-09
1.19369e-09
1.06865e-09
3.31899e-10
3.86959e-10
3.83581e-10
2.98333e-10
2.00455e-10
1.18393e-10
5.51976e-11
5.20234e-12
2.76348e-11
4.74458e-11
6.07515e-11
7.04729e-11
7.70413e-11
8.00188e-11
7.55661e-11
6.46044e-11
5.29778e-11
4.34672e-11
3.519e-11
2.77155e-11
2.07897e-11
1.4625e-11
9.87274e-12
6.52089e-12
4.0675e-12
2.36422e-12
1.40855e-12
9.09751e-13
4.94897e-13
1.58915e-13
1.46337e-13
4.7541e-14
8.04122e-14
8.39117e-14
1.96852e-14
4.8357e-14
1.98216e-14
2.12068e-14
7.44345e-15
8.88983e-15
1.21636e-14
1.14013e-14
1.14573e-14
9.04036e-15
1.06544e-14
1.1656e-14
9.62972e-15
8.85184e-15
1.10755e-14
8.93191e-15
6.91128e-15
8.78213e-15
8.74462e-15
5.60969e-15
6.44031e-15
5.80638e-15
4.4875e-15
4.01251e-15
4.44817e-15
2.76364e-15
2.98075e-15
2.67221e-15
2.46869e-15
1.80143e-15
1.80627e-15
1.79108e-15
1.69615e-15
1.31191e-15
1.42733e-15
1.56549e-15
1.31185e-15
9.25744e-16
1.18682e-15
8.68236e-16
9.76007e-16
5.49883e-16
7.43223e-16
7.87198e-16
6.03823e-16
7.51598e-16
5.55155e-16
4.3479e-16
6.54062e-16
4.14377e-16
3.30327e-16
2.15943e-16
4.51428e-16
1.30231e-16
1.29536e-16
2.06308e-16
3.62221e-17
5.90826e-17
4.96749e-17
0
0
0
0
0
0
0
0
0
0
0
0
0
0
0
0
0
0
0
0
0
0
0
0
0
0
0
0
0
0
0
0
0
0
0
0
0
0
0
0
0
0
0
0
0
0
0
0
0
0
0
0
0
0
0
0
0
0
0
0
0
0
0
0
0
0
0
0
0
0
0
0
0
0
0
0
0
0
0
0
0
0
0
0
0
0
0
0
0
0.04
0.0266409
0.0277453
0.0264155
0.0255885
0.0254729
0.0262106
0.0253183
0.0237046
0.0236182
0.0242644
0.0239697
0.0231843
0.0229856
0.0228071
0.0220773
0.0211953
0.0205024
0.0199667
0.019343
0.0191855
0.0190511
0.0192494
0.0191521
0.0193952
0.0193162
0.0195186
0.0195733
0.0200123
0.0203741
0.020908
0.021291
0.0216434
0.0217797
0.0218466
0.0218334
0.0218344
0.0218548
0.0219475
0.0221064
0.0223318
0.0226136
0.0229356
0.0232578
0.0235375
0.023748
0.0238799
0.0239512
0.0240013
0.0240736
0.0241969
0.024381
0.0246107
0.0248551
0.0250828
0.0252737
0.0254194
0.0255314
0.0256339
0.0257467
0.0258808
0.0260404
0.0262174
0.0263988
0.0265793
0.0267599
0.026941
0.0271228
0.0273052
0.0274788
0.0276305
0.0277564
0.0278586
0.0279384
0.0280056
0.0280713
0.0281375
0.0282028
0.0282706
0.0283393
0.0284033
0.0284628
0.0285237
0.0285818
0.0286312
0.0286745
0.0287152
0.0287453
0.0287637
0.0287781
0.028791
0.0287966
0.0287984
0.0288004
0.0288011
0.0287972
0.0287908
0.0287838
0.0287755
0.0287616
0.0287438
0.0287253
0.0287025
0.0286705
0.0286359
0.0285999
0.0285547
0.0285016
0.0284496
0.0283917
0.028322
0.0282531
0.0281855
0.028105
0.028021
0.0279422
0.0278549
0.0277591
0.0276693
0.0275804
0.0274832
0.0273848
0.0272917
0.0271958
0.0270944
0.0269978
0.0269087
0.0268195
0.0267311
0.026649
0.026568
0.0264788
0.0263821
0.0262831
0.0261799
0.0260678
0.0259441
0.0258081
0.0256536
0.0254693
0.0252604
0.0250502
0.0248558
0.024678
0.0245178
0.0243879
0.0242883
0.0241907
0.0240769
0.0239649
0.0238621
0.0237175
0.0234729
0.0231522
0.022832
0.0225296
0.0222086
0.0218917
0.0216858
0.021654
0.0217068
0.0216852
0.0215632
0.0215095
0.0216937
0.022043
0.0222654
0.0221704
0.0219357
0.0219735
0.0225021
0.0232567
0.0236441
0.0232585
0.0223278
0.0216878
0.022265
0.0243278
0.0268436
0.0276694
0.0251166
0.0195745
0.0131603
0.00782981
0.00425873
0.0021772
0.00106444
0.000503039
0.000231499
0.000103418
4.48779e-05
1.90182e-05
7.98276e-06
3.51031e-06
1.48701e-06
5.72562e-07
2.26296e-07
1.78473e-07
1.49513e-07
2.56869e-07
9.9641e-08
2.12531e-07
1.01937e-07
1.63779e-07
3.64544e-08
6.22088e-08
6.58201e-08
2.91568e-08
5.01841e-08
4.9214e-08
1.59853e-08
3.18969e-08
1.86427e-09
1.2557e-08
3.11961e-09
3.54521e-09
1.72225e-09
7.36836e-10
5.99386e-10
4.51616e-10
4.14271e-10
3.09831e-10
2.17458e-10
1.37177e-10
6.94515e-11
2.11227e-11
1.22417e-11
3.6253e-11
5.3888e-11
6.7216e-11
7.69037e-11
7.8314e-11
7.17158e-11
6.25982e-11
5.36591e-11
4.47648e-11
3.65498e-11
2.87275e-11
2.12061e-11
1.48721e-11
1.0205e-11
6.80798e-12
4.33543e-12
2.74157e-12
1.62491e-12
8.18889e-13
4.15204e-13
1.83617e-13
1.03289e-13
1.76326e-13
4.71356e-14
8.23057e-14
7.5399e-14
2.93709e-14
3.99411e-14
7.75889e-15
2.55021e-14
1.60282e-14
1.09437e-14
1.24732e-14
1.30265e-14
1.15681e-14
1.19576e-14
1.29785e-14
1.10071e-14
1.03315e-14
1.09746e-14
1.00695e-14
8.16932e-15
9.61146e-15
9.02742e-15
6.30333e-15
6.98694e-15
6.94071e-15
5.37791e-15
4.23199e-15
4.71513e-15
3.13412e-15
3.45131e-15
3.21158e-15
2.08441e-15
1.95949e-15
2.31161e-15
1.72058e-15
1.66951e-15
1.1125e-15
1.73897e-15
1.63699e-15
1.39963e-15
1.36911e-15
1.40358e-15
8.80789e-16
7.95442e-16
8.50191e-16
8.61122e-16
6.49538e-16
4.89327e-16
6.09932e-16
6.23121e-16
4.76579e-16
4.49277e-16
3.9971e-16
5.0307e-16
1.4393e-16
2.52984e-16
2.07849e-16
1.47604e-16
1.07776e-16
1.08389e-16
4.66766e-17
6.06905e-17
0
0
0
0
0
0
0
0
0
0
0
0
0
0
0
0
0
0
0
0
0
0
0
0
0
0
0
0
0
0
0
0
0
0
0
0
0
0
0
0
0
0
0
0
0
0
0
0
0
0
0
0
0
0
0
0
0
0
0
0
0
0
0
0
0
0
0
0
0
0
0
0
0
0
0
0
0
0
0
0
0
0
0
0
0
0
0
0
0
0.04
0.0246082
0.0251015
0.0262564
0.0269838
0.0267208
0.0261173
0.0252055
0.0252843
0.0254031
0.0245791
0.023737
0.023674
0.0235298
0.0226856
0.0217946
0.0212659
0.020697
0.0201788
0.0198473
0.020014
0.0199595
0.0201298
0.0199542
0.0199999
0.0196286
0.0196332
0.0195822
0.0199808
0.0203453
0.0209537
0.0213953
0.0217712
0.0219118
0.021983
0.0219545
0.0219407
0.0219653
0.0220762
0.0222576
0.0225137
0.0228237
0.0231515
0.023451
0.0236898
0.0238498
0.0239324
0.0239685
0.0240004
0.0240649
0.024189
0.0243817
0.0246225
0.0248824
0.0251296
0.0253341
0.025484
0.0255914
0.0256775
0.0257641
0.0258731
0.0260159
0.0261866
0.0263774
0.0265845
0.0267975
0.0270061
0.0272042
0.0273825
0.0275291
0.0276422
0.0277276
0.0277906
0.0278386
0.0278864
0.0279384
0.0279917
0.0280517
0.0281229
0.0281989
0.0282803
0.028371
0.0284641
0.028548
0.0286235
0.0286916
0.0287441
0.0287783
0.0288077
0.0288332
0.0288459
0.0288517
0.0288608
0.0288633
0.0288557
0.0288472
0.0288397
0.0288246
0.0288054
0.028788
0.0287671
0.0287382
0.0287088
0.0286767
0.0286353
0.02859
0.0285452
0.0284918
0.0284316
0.0283735
0.0283104
0.0282371
0.0281648
0.0280913
0.0280091
0.0279261
0.0278451
0.0277563
0.027663
0.0275734
0.0274805
0.0273805
0.0272871
0.027199
0.0271024
0.0270015
0.0269057
0.0268067
0.0266991
0.0265953
0.0265023
0.0264089
0.0263047
0.0261927
0.0260766
0.0259468
0.0257971
0.0256438
0.025495
0.0253315
0.0251448
0.0249522
0.0247652
0.0245769
0.0243939
0.0242466
0.0241465
0.0240746
0.0240214
0.0239981
0.0239974
0.0239589
0.0238117
0.0235544
0.0232465
0.0229224
0.0225728
0.02223
0.0220019
0.0219513
0.021978
0.0219062
0.0217081
0.0215688
0.0216795
0.0219895
0.0222134
0.0221301
0.0218712
0.0218381
0.0222923
0.0230255
0.0234537
0.0231195
0.0221872
0.0214731
0.0219498
0.023976
0.026592
0.0276364
0.025304
0.0198708
0.0134388
0.00802688
0.00437452
0.00223781
0.00109421
0.000516199
0.000236495
0.00010556
4.5828e-05
1.92016e-05
7.65741e-06
2.85585e-06
1.22305e-06
7.77083e-07
2.85734e-07
3.60282e-08
2.5914e-07
1.58558e-07
2.87907e-07
1.32919e-07
2.04426e-07
5.1237e-08
5.91276e-08
8.27977e-08
4.54845e-08
5.95777e-08
6.19899e-08
2.16162e-08
3.77654e-08
6.64908e-09
1.44706e-08
3.97898e-09
3.93917e-09
1.56043e-09
5.32549e-10
5.32234e-10
5.58525e-10
4.2694e-10
3.23685e-10
2.61369e-10
1.94587e-10
1.14416e-10
5.15082e-11
6.60142e-12
2.32483e-11
4.45704e-11
6.1476e-11
7.55761e-11
8.18445e-11
8.02636e-11
7.47236e-11
6.63624e-11
5.63672e-11
4.72859e-11
3.87862e-11
2.98941e-11
2.18346e-11
1.56945e-11
1.10431e-11
7.47554e-12
4.84306e-12
2.92104e-12
1.5529e-12
7.41308e-13
3.81951e-13
3.08278e-13
2.07529e-13
6.37247e-14
1.1792e-13
3.92985e-14
4.86933e-14
5.59205e-14
1.58976e-14
2.48905e-14
9.842e-15
1.51972e-14
3.03142e-15
1.17815e-15
5.82779e-15
5.34023e-15
3.82349e-15
4.55573e-15
4.93063e-15
4.42645e-15
4.13505e-15
4.82154e-15
4.6584e-15
4.22433e-15
4.1598e-15
3.58797e-15
4.18164e-15
3.45967e-15
3.04784e-15
2.30758e-15
2.71222e-15
2.50485e-15
2.42701e-15
2.15568e-15
1.78679e-15
1.57777e-15
2.03281e-15
1.62504e-15
1.59845e-15
1.22228e-15
1.10054e-15
1.30271e-15
1.58241e-15
1.32975e-15
1.42706e-15
8.83511e-16
5.31381e-16
7.63854e-16
9.67522e-16
8.64282e-16
6.61246e-16
6.45653e-16
9.55768e-16
5.0756e-16
5.70194e-16
3.91187e-16
3.05331e-16
2.63883e-16
1.67686e-16
1.28931e-16
3.83213e-17
6.36906e-17
1.22663e-16
5.60506e-17
3.29141e-17
0
0
0
0
0
0
0
0
0
0
0
0
0
0
0
0
0
0
0
0
0
0
0
0
0
0
0
0
0
0
0
0
0
0
0
0
0
0
0
0
0
0
0
0
0
0
0
0
0
0
0
0
0
0
0
0
0
0
0
0
0
0
0
0
0
0
0
0
0
0
0
0
0
0
0
0
0
0
0
0
0
0
0
0
0
0
0
0
0
0.04
0.0247724
0.0254893
0.0258445
0.0259397
0.0258858
0.0259001
0.0260764
0.0260277
0.0250477
0.0244127
0.0244841
0.0241213
0.0230511
0.0222526
0.0218404
0.0212162
0.0204673
0.0203002
0.020368
0.0205984
0.0205542
0.0207891
0.0205045
0.0202973
0.0197458
0.0196677
0.0195261
0.0198692
0.0202429
0.0208571
0.0212611
0.0216224
0.0217868
0.0218848
0.0218888
0.021931
0.0220086
0.0221507
0.0223546
0.0226268
0.0229285
0.0232203
0.0234717
0.0236601
0.0237751
0.0238362
0.0238769
0.0239265
0.0240149
0.0241616
0.024365
0.0246069
0.024862
0.0250977
0.0252892
0.0254339
0.0255423
0.0256302
0.0257219
0.0258352
0.025975
0.026143
0.0263397
0.0265591
0.0267891
0.027017
0.0272272
0.0274003
0.0275277
0.0276142
0.0276668
0.0276988
0.0277266
0.0277577
0.0277938
0.0278422
0.0279051
0.0279785
0.0280646
0.0281687
0.0282809
0.02839
0.0284958
0.0285967
0.0286801
0.0287455
0.0288017
0.0288489
0.0288803
0.0289026
0.0289218
0.0289334
0.0289348
0.0289336
0.0289293
0.0289192
0.0289043
0.028886
0.0288635
0.0288374
0.0288047
0.0287664
0.028727
0.0286831
0.0286291
0.0285755
0.0285227
0.028458
0.0283905
0.0283302
0.0282586
0.0281762
0.0281022
0.0280259
0.0279345
0.0278475
0.0277685
0.027678
0.0275813
0.0274921
0.0273979
0.0272923
0.0271907
0.0270939
0.026988
0.0268778
0.0267734
0.0266628
0.0265396
0.026422
0.0263132
0.0261921
0.0260572
0.0259261
0.0257923
0.0256394
0.025484
0.025349
0.0252181
0.0250636
0.024892
0.0247182
0.02453
0.0243289
0.024158
0.0240495
0.0239887
0.0239591
0.023977
0.024041
0.0240819
0.0240209
0.0238499
0.0236108
0.023327
0.0229974
0.0226593
0.0224134
0.0223219
0.0222978
0.0221769
0.0219275
0.0217264
0.0217635
0.021997
0.0221651
0.0220694
0.0218272
0.0217972
0.0222177
0.0228966
0.0232825
0.0229335
0.022001
0.0212765
0.0217206
0.0237102
0.0263336
0.0274672
0.0252756
0.0199526
0.013554
0.00812287
0.00443696
0.00227184
0.00111242
0.000526357
0.000241239
0.000107749
4.70268e-05
2.01262e-05
8.50988e-06
3.35221e-06
1.26801e-06
3.17318e-07
2.28324e-07
4.17677e-07
1.72026e-07
2.46764e-07
2.0957e-07
1.94522e-07
1.32982e-07
1.44038e-07
2.68884e-08
6.82614e-08
9.79865e-08
1.22086e-08
7.79648e-08
4.09508e-08
3.15814e-08
2.93564e-08
5.69735e-09
1.23979e-08
1.03581e-09
3.52724e-09
1.02413e-09
8.35941e-10
5.58946e-10
4.03461e-10
3.51175e-10
2.70854e-10
1.85484e-10
1.11312e-10
5.08889e-11
8.19066e-12
2.19308e-11
4.35661e-11
6.20407e-11
7.42607e-11
8.05972e-11
8.25529e-11
7.83565e-11
6.86293e-11
5.79573e-11
4.82055e-11
3.91131e-11
3.10099e-11
2.38008e-11
1.72455e-11
1.18398e-11
7.79719e-12
4.8881e-12
2.94376e-12
1.71804e-12
1.00487e-12
6.01624e-13
2.57546e-13
1.71007e-13
1.59759e-13
2.4666e-14
1.2262e-13
5.12547e-14
4.25567e-14
4.42914e-14
9.30746e-15
2.18281e-14
1.32288e-14
1.03148e-14
2.02346e-15
1.66962e-15
5.37441e-15
3.7413e-15
2.43654e-15
2.78037e-15
2.69591e-15
2.20031e-15
3.08336e-15
3.49291e-15
2.89533e-15
2.31584e-15
2.7255e-15
3.21201e-15
2.60596e-15
2.15531e-15
2.13158e-15
2.06404e-15
2.15802e-15
2.42071e-15
1.6393e-15
1.86171e-15
1.59845e-15
1.77596e-15
1.62224e-15
1.73747e-15
1.15905e-15
1.11431e-15
1.45798e-15
1.49559e-15
1.397e-15
1.3045e-15
1.15861e-15
9.43747e-16
1.1402e-15
9.00841e-16
8.36943e-16
9.75803e-16
6.42607e-16
7.46197e-16
3.29323e-16
6.18029e-16
2.85466e-16
2.62992e-16
2.55258e-16
1.00134e-16
2.72854e-16
1.17808e-16
1.6457e-16
1.33472e-16
6.06905e-17
3.29141e-17
0
0
0
0
0
0
0
0
0
0
0
0
0
0
0
0
0
0
0
0
0
0
0
0
0
0
0
0
0
0
0
0
0
0
0
0
0
0
0
0
0
0
0
0
0
0
0
0
0
0
0
0
0
0
0
0
0
0
0
0
0
0
0
0
0
0
0
0
0
0
0
0
0
0
0
0
0
0
0
0
0
0
0
0
0
0
0
0
0
0.04
0.0253991
0.0259055
0.0255331
0.0258269
0.0260955
0.0261128
0.0258919
0.0254999
0.0252183
0.0251659
0.0245275
0.0235153
0.0228812
0.0224252
0.0215705
0.0207585
0.0204989
0.0206821
0.02072
0.0210436
0.0212083
0.0214037
0.0209177
0.0206106
0.020007
0.0198164
0.019582
0.0198937
0.0201985
0.0206952
0.0210228
0.0213712
0.0215502
0.0217034
0.0218088
0.0219468
0.0220842
0.0222672
0.0224943
0.0227535
0.0230118
0.0232508
0.0234451
0.0235796
0.0236666
0.0237305
0.0237919
0.0238719
0.0239928
0.0241609
0.0243682
0.0246025
0.0248397
0.0250514
0.0252284
0.0253729
0.0254899
0.0255932
0.0257002
0.0258178
0.0259509
0.026113
0.0263098
0.0265346
0.0267773
0.0270187
0.0272304
0.0273925
0.0275023
0.027566
0.0275955
0.0276112
0.0276276
0.0276481
0.0276782
0.0277247
0.0277847
0.027861
0.0279592
0.0280728
0.0281905
0.0283133
0.0284369
0.0285484
0.0286434
0.0287322
0.0288119
0.0288715
0.0289161
0.0289587
0.0289902
0.0290048
0.0290149
0.0290256
0.0290244
0.029013
0.0290013
0.0289858
0.0289567
0.0289236
0.0288921
0.0288505
0.0287992
0.0287521
0.0286988
0.0286321
0.0285675
0.0285042
0.0284276
0.0283504
0.0282803
0.0282012
0.0281143
0.028033
0.0279472
0.0278515
0.0277595
0.0276715
0.0275769
0.0274801
0.0273844
0.0272807
0.0271685
0.0270559
0.0269396
0.0268197
0.0267035
0.0265849
0.0264575
0.0263301
0.026203
0.0260642
0.0259174
0.0257742
0.025631
0.0254827
0.0253405
0.0252192
0.0251123
0.0249964
0.0248597
0.0247038
0.0245236
0.0243246
0.0241454
0.0240301
0.0239785
0.023962
0.0239828
0.0240484
0.0241109
0.0241029
0.0240175
0.0238905
0.0237151
0.0234482
0.023117
0.0228453
0.0227188
0.0226617
0.0225056
0.0221948
0.0218875
0.0217981
0.0219403
0.0220843
0.0220114
0.0217817
0.0217084
0.022044
0.022659
0.0230456
0.0227377
0.0218222
0.0210537
0.0214191
0.023368
0.0260566
0.0273642
0.0253727
0.0201711
0.0137815
0.00829347
0.00454319
0.00233072
0.00114155
0.000540029
0.000248012
0.000110564
4.78418e-05
2.01012e-05
8.28096e-06
3.53775e-06
1.38037e-06
4.8869e-07
7.69452e-08
2.1709e-07
2.60639e-07
3.29824e-07
2.37244e-07
1.6584e-07
1.29233e-07
2.18611e-08
4.15011e-08
7.39533e-08
2.04712e-08
6.90607e-08
3.20655e-08
3.50246e-08
2.17023e-08
1.15157e-08
8.82484e-09
2.63369e-09
2.59781e-09
8.00776e-10
9.98394e-10
4.11801e-10
3.35593e-10
3.87564e-10
3.88501e-10
2.88885e-10
1.95666e-10
1.19074e-10
6.46351e-11
2.26251e-11
8.79065e-12
3.58357e-11
5.64427e-11
7.1792e-11
8.18383e-11
8.33198e-11
7.67822e-11
6.77871e-11
5.86306e-11
4.93748e-11
4.09998e-11
3.31912e-11
2.52108e-11
1.78555e-11
1.21845e-11
8.17408e-12
5.30009e-12
3.32702e-12
1.97235e-12
1.03687e-12
4.76102e-13
2.60447e-13
9.1838e-14
1.36561e-13
1.37263e-13
3.43708e-14
8.61653e-14
3.08859e-14
2.90789e-14
3.46923e-14
1.37637e-14
1.14816e-14
6.78406e-15
7.87991e-15
3.57959e-15
3.50834e-15
4.28449e-15
3.05215e-15
3.59548e-15
3.35037e-15
2.7945e-15
3.77333e-15
3.8667e-15
2.74483e-15
2.44164e-15
3.32746e-15
3.1293e-15
2.97356e-15
2.44396e-15
2.36428e-15
2.01707e-15
2.18416e-15
2.26013e-15
1.5589e-15
1.62948e-15
1.65746e-15
1.78079e-15
1.62066e-15
1.69234e-15
1.20071e-15
1.19889e-15
1.36603e-15
1.78609e-15
1.43503e-15
1.23002e-15
1.0225e-15
8.41668e-16
9.04255e-16
1.00093e-15
9.43307e-16
1.12719e-15
7.51774e-16
8.65869e-16
3.96004e-16
4.33223e-16
4.03486e-16
4.03322e-16
2.5258e-17
9.98936e-17
1.4229e-16
2.40621e-16
1.43762e-16
8.70133e-17
1.04083e-17
3.53816e-17
0
0
0
0
0
0
0
0
0
0
0
0
0
0
0
0
0
0
0
0
0
0
0
0
0
0
0
0
0
0
0
0
0
0
0
0
0
0
0
0
0
0
0
0
0
0
0
0
0
0
0
0
0
0
0
0
0
0
0
0
0
0
0
0
0
0
0
0
0
0
0
0
0
0
0
0
0
0
0
0
0
0
0
0
0
0
0
0
0
0.04
0.0253768
0.0254455
0.0253928
0.0257141
0.0256786
0.0258069
0.0256676
0.0254934
0.0253843
0.024904
0.0240523
0.0235045
0.0229613
0.0219619
0.0210366
0.0207741
0.0207454
0.0208025
0.0210022
0.0216281
0.0217543
0.0217449
0.0212277
0.0209497
0.020276
0.0200378
0.0198224
0.0200775
0.0202153
0.0205565
0.0207817
0.0210597
0.021236
0.0214835
0.0217146
0.0219547
0.0221778
0.0224246
0.0226646
0.0228918
0.0230978
0.0232715
0.0233951
0.0234799
0.0235499
0.0236183
0.0236998
0.0238147
0.023971
0.0241639
0.0243867
0.0246203
0.0248368
0.0250235
0.0251821
0.0253156
0.0254348
0.0255532
0.0256731
0.0257959
0.0259344
0.0261008
0.0262979
0.0265225
0.026763
0.0269923
0.0271826
0.0273257
0.0274214
0.0274753
0.0275048
0.0275247
0.0275391
0.0275573
0.0275875
0.02763
0.0276892
0.0277739
0.0278775
0.0279896
0.0281107
0.0282385
0.0283581
0.0284698
0.0285818
0.0286873
0.0287755
0.0288545
0.0289276
0.028985
0.0290246
0.0290585