# vtk DataFile Version 3.0
LBM output step 1740
ASCII
DATASET STRUCTURED_POINTS
DIMENSIONS 400 100 1
ORIGIN 0 0 0
SPACING 1 1 1
POINT_DATA 40000
SCALARS velocity_magnitude double 1
LOOKUP_TABLE default
0
0
0
0
0
0
0
0
0
0
0
0
0
0
0
0
0
0
0
0
0
0
0
0
0
0
0
0
0
0
0
0
0
0
0
0
0
0
0
0
0
0
0
0
0
0
0
0
0
0
0
0
0
0
0
0
0
0
0
0
0
0
0
0
0
0
0
0
0
0
0
0
0
0
0
0
0
0
0
0
0
0
0
0
0
0
0
0
0
0
0
0
0
0
0
0
0
0
0
0
0
0
0
0
0
0
0
0
0
0
0
0
0
0
0
0
0
0
0
0
0
0
0
0
0
0
0
0
0
0
0
0
0
0
0
0
0
0
0
0
0
0
0
0
0
0
0
0
0
0
0
0
0
0
0
0
0
0
0
0
0
0
0
0
0
0
0
0
0
0
0
0
0
0
0
0
0
0
0
0
0
0
0
0
0
0
0
0
0
0
0
0
0
0
0
0
0
0
0
0
0
0
0
0
0
0
0
0
0
0
0
0
0
0
0
0
0
0
0
0
0
0
0
0
0
0
0
0
0
0
0
0
0
0
0
0
0
0
0
0
0
0
0
0
0
0
0
0
0
0
0
0
0
0
0
0
0
0
0
0
0
0
0
0
0
0
0
0
0
0
0
0
0
0
0
0
0
0
0
0
0
0
0
0
0
0
0
0
0
0
0
0
0
0
0
0
0
0
0
0
0
0
0
0
0
0
0
0
0
0
0
0
0
0
0
0
0
0
0
0
0
0
0
0
0
0
0
0
0
0
0
0
0
0
0
0
0
0
0
0
0
0
0
0
0
0
0
0
0
0
0
0
0
0
0
0
0
0
0
0
0
0
0
0
0
0
0
0
0
0
0
0
0
0
0
0
0
0
0
0
0
0
0
0
0
0
0
0
0
0
0
0
0
0
0
0
0
0
0
0
0.04
0.0180448
0.0118988
0.0145466
0.0177763
0.0177816
0.0143879
0.0130729
0.0128879
0.0129095
0.0124916
0.0123758
0.0120244
0.01177
0.011583
0.011543
0.0113478
0.0111942
0.0110637
0.0109748
0.0108277
0.010726
0.0106229
0.0105238
0.0104042
0.0103172
0.0102226
0.0101303
0.0100358
0.00996081
0.00987859
0.0098012
0.00972587
0.00965903
0.00958574
0.00951702
0.00944936
0.00938474
0.00931678
0.00925361
0.00919119
0.00913076
0.00906989
0.00901313
0.00895675
0.0089022
0.00884847
0.0087977
0.00874737
0.00869889
0.00865135
0.00860569
0.00856029
0.00851605
0.00847228
0.00842969
0.00838749
0.00834648
0.00830667
0.00826864
0.00823196
0.00819739
0.00816502
0.00813473
0.00810643
0.00808056
0.00805681
0.00803475
0.00801493
0.0079969
0.00798049
0.0079655
0.00795274
0.00794067
0.00793023
0.00792101
0.00791374
0.00790627
0.00790128
0.00789717
0.00789509
0.00789249
0.00789354
0.00789429
0.00789695
0.00789798
0.00790248
0.00790385
0.0079063
0.00790467
0.00790533
0.0078994
0.007894
0.00788172
0.00787099
0.00785083
0.0078318
0.00780356
0.00777729
0.00773982
0.00770528
0.00765981
0.00761794
0.00756405
0.0075156
0.00745483
0.00740017
0.00733283
0.0072733
0.00720013
0.00713585
0.00705796
0.00699018
0.00690825
0.00683823
0.00675424
0.00668322
0.00659858
0.00652852
0.0064448
0.00637639
0.00629509
0.00622958
0.006151
0.00608857
0.00601403
0.00595488
0.0058841
0.00582892
0.00576305
0.00571132
0.00565052
0.00560355
0.00554844
0.00550595
0.0054577
0.00542103
0.00537955
0.00534863
0.00531467
0.00528933
0.00526161
0.00524141
0.00521966
0.00520351
0.00518649
0.00517403
0.00516066
0.0051501
0.00513886
0.00512939
0.00511909
0.00511009
0.00510108
0.00509302
0.00508484
0.00507734
0.00506977
0.00506233
0.00505513
0.00504899
0.00504407
0.00504062
0.00503876
0.00503814
0.00503791
0.00503746
0.00503658
0.00503522
0.00503363
0.00503243
0.00503217
0.00503294
0.00503456
0.00503676
0.00503927
0.00504208
0.00504579
0.00505149
0.00506049
0.00507387
0.00509217
0.00511503
0.00514106
0.00516802
0.00519333
0.00521439
0.00522918
0.00523663
0.00523679
0.00523078
0.00522056
0.00520866
0.00519773
0.00519024
0.0051882
0.00519302
0.00520544
0.00522553
0.0052528
0.00528635
0.00532495
0.00536718
0.0054116
0.00545684
0.00550163
0.00554495
0.00558597
0.00562414
0.00565912
0.00569079
0.00571923
0.00574462
0.00576723
0.00578738
0.00580539
0.00582155
0.00583611
0.0058493
0.0058613
0.00587227
0.00588236
0.0058917
0.0059004
0.00590859
0.00591636
0.0059238
0.00593102
0.00593813
0.00594523
0.00595248
0.00596005
0.00596809
0.00597678
0.00598627
0.00599666
0.00600798
0.0060202
0.0060332
0.00604679
0.00606072
0.00607466
0.00608825
0.00610112
0.00611289
0.0061232
0.00613173
0.00613822
0.00614248
0.00614442
0.00614404
0.00614142
0.00613674
0.00613024
0.00612221
0.00611296
0.0061028
0.00609201
0.00608084
0.00606947
0.00605802
0.00604655
0.00603504
0.00602339
0.00601145
0.00599907
0.00598605
0.00597225
0.00595759
0.00594203
0.00592565
0.00590854
0.00589087
0.0058728
0.00585454
0.00583627
0.0058182
0.0058006
0.00578373
0.00576793
0.00575356
0.005741
0.00573063
0.00572278
0.00571774
0.0057157
0.00571674
0.00572081
0.00572773
0.00573717
0.00574866
0.00576163
0.00577546
0.00578947
0.00580303
0.00581555
0.00582655
0.00583566
0.00584267
0.00584746
0.00585009
0.00585075
0.00584975
0.00584754
0.00584469
0.00584183
0.00583964
0.00583874
0.00583966
0.00584275
0.00584812
0.00585568
0.0058651
0.0058759
0.00588748
0.00589929
0.00591079
0.00592162
0.00593156
0.00594057
0.0059488
0.00595654
0.00596418
0.00597225
0.00598128
0.00599183
0.00600441
0.00601938
0.00603693
0.00605699
0.0060792
0.00610294
0.00612738
0.00615155
0.00617451
0.00619542
0.00621366
0.00622894
0.00624123
0.00625079
0.00625806
0.00626356
0.00626781
0.00627126
0.00627431
0.00627732
0.00628065
0.0062847
0.00628988
0.00629654
0.0063049
0.00631492
0.00632628
0.0063383
0.00635008
0.0063606
0.00636886
0.00637408
0.00637575
0.00637365
0.0063678
0.0063583
0.00634525
0.00632863
0.0063084
0.00628453
0.00625718
0.00622682
0.00619428
0.00616072
0.00612758
0.00609632
0.00606824
0.00604426
0.00602466
0.00600903
0.00599628
0.00598479
0.0059727
0.00595824
0.00594008
0.00591754
0.00589082
0.00586093
0.00582968
0.0057994
0.00577255
0.0057514
0.00573754
0.00573169
0.00573341
0.00574147
0.00575415
0.00576965
0.00578644
0.00580402
0.0058232
0.00584264
0.00586231
0.00586231
0.04
0.028124
0.0306984
0.0282446
0.020493
0.0184918
0.0212896
0.0221551
0.0203359
0.0191976
0.0190012
0.0187379
0.0182792
0.0180772
0.0178121
0.0174533
0.0171852
0.0170617
0.0168526
0.0166187
0.0164454
0.0163083
0.0161257
0.0159622
0.0158294
0.0156951
0.0155451
0.0154212
0.0153099
0.0151941
0.0150799
0.0149848
0.0148918
0.0147973
0.0147094
0.0146315
0.0145529
0.0144768
0.0144083
0.0143456
0.0142838
0.0142273
0.0141769
0.0141297
0.0140846
0.0140441
0.014007
0.0139718
0.0139386
0.0139085
0.0138804
0.0138536
0.0138284
0.0138054
0.013784
0.0137639
0.0137461
0.0137309
0.0137181
0.0137081
0.0137018
0.0136991
0.0136998
0.0137044
0.0137136
0.0137259
0.0137421
0.0137627
0.0137868
0.0138133
0.0138443
0.0138784
0.0139146
0.013953
0.0139958
0.0140392
0.0140843
0.0141316
0.0141826
0.0142318
0.0142837
0.0143373
0.0143933
0.0144454
0.0145013
0.0145558
0.0146107
0.0146587
0.0147099
0.0147542
0.0147969
0.0148291
0.014863
0.0148841
0.0149033
0.0149083
0.0149141
0.0149025
0.014891
0.0148616
0.0148341
0.0147865
0.0147423
0.014677
0.0146172
0.0145355
0.014461
0.0143633
0.0142765
0.0141651
0.0140656
0.0139421
0.0138345
0.0136999
0.0135844
0.0134443
0.0133247
0.0131785
0.0130585
0.0129123
0.0127921
0.0126465
0.0125312
0.0123886
0.0122766
0.0121399
0.0120346
0.0119032
0.0118045
0.0116822
0.011591
0.0114771
0.0113949
0.0112923
0.0112191
0.0111281
0.0110657
0.0109877
0.0109352
0.0108703
0.0108284
0.0107756
0.0107426
0.0107013
0.0106766
0.010645
0.0106269
0.0106036
0.0105904
0.0105728
0.010563
0.0105499
0.0105426
0.0105332
0.0105285
0.0105225
0.0105196
0.0105158
0.0105145
0.010513
0.0105138
0.0105159
0.0105206
0.0105268
0.0105347
0.0105434
0.0105525
0.010561
0.0105696
0.0105782
0.0105875
0.0105977
0.0106091
0.0106216
0.0106346
0.0106481
0.010662
0.0106769
0.0106938
0.0107141
0.0107386
0.0107678
0.0108012
0.0108373
0.010874
0.0109084
0.0109382
0.0109614
0.0109772
0.0109858
0.0109884
0.0109873
0.0109849
0.0109842
0.0109875
0.010997
0.0110138
0.0110387
0.0110716
0.0111119
0.0111585
0.01121
0.0112649
0.0113217
0.0113787
0.0114347
0.0114885
0.0115394
0.0115867
0.0116301
0.0116696
0.0117051
0.0117371
0.0117657
0.0117915
0.0118148
0.0118359
0.0118552
0.011873
0.0118894
0.0119047
0.0119189
0.0119323
0.0119449
0.0119568
0.0119681
0.0119789
0.0119892
0.0119991
0.0120087
0.0120183
0.0120279
0.0120377
0.012048
0.0120589
0.0120706
0.012083
0.0120962
0.01211
0.0121243
0.0121387
0.0121529
0.0121665
0.0121792
0.0121904
0.0121999
0.0122072
0.0122121
0.0122145
0.0122143
0.0122115
0.0122063
0.0121989
0.0121896
0.0121787
0.0121667
0.0121538
0.0121404
0.0121267
0.0121129
0.0120992
0.0120856
0.012072
0.0120584
0.0120447
0.0120306
0.0120161
0.0120009
0.011985
0.0119685
0.0119514
0.0119338
0.0119159
0.0118978
0.0118799
0.0118622
0.011845
0.0118286
0.0118131
0.0117991
0.0117867
0.0117764
0.0117686
0.0117635
0.0117614
0.0117626
0.011767
0.0117747
0.0117852
0.0117984
0.0118137
0.0118304
0.0118479
0.0118655
0.0118826
0.0118984
0.0119126
0.0119248
0.0119347
0.0119423
0.0119476
0.0119508
0.0119524
0.0119527
0.0119524
0.0119521
0.0119526
0.0119544
0.0119581
0.011964
0.0119722
0.0119827
0.011995
0.0120087
0.0120232
0.0120379
0.0120524
0.0120663
0.0120793
0.0120916
0.0121032
0.0121145
0.0121259
0.0121379
0.0121511
0.0121661
0.0121832
0.0122028
0.0122249
0.0122495
0.012276
0.0123038
0.012332
0.0123597
0.0123857
0.0124095
0.0124303
0.0124479
0.0124623
0.0124738
0.0124826
0.0124895
0.0124949
0.0124993
0.0125031
0.0125068
0.0125108
0.0125153
0.0125209
0.0125276
0.0125357
0.012545
0.0125552
0.0125654
0.0125749
0.0125827
0.0125878
0.0125894
0.0125871
0.0125807
0.01257
0.0125552
0.0125363
0.0125134
0.0124864
0.0124555
0.0124209
0.0123831
0.012343
0.012302
0.0122613
0.0122225
0.0121868
0.0121551
0.0121278
0.0121044
0.012084
0.0120651
0.0120461
0.0120253
0.0120017
0.0119746
0.0119442
0.0119117
0.0118789
0.0118478
0.011821
0.0118005
0.0117877
0.0117834
0.0117871
0.0117975
0.0118127
0.011831
0.0118511
0.0118712
0.0118907
0.0119105
0.0119307
0.0119307
0.04
0.0283007
0.0269926
0.0245231
0.0256416
0.0276628
0.0267689
0.02484
0.0247171
0.0251386
0.0245395
0.0237013
0.0233452
0.0231342
0.0227119
0.0223733
0.0221332
0.0218615
0.021556
0.0213512
0.0211569
0.020931
0.020715
0.0205525
0.0203787
0.0201992
0.0200405
0.0199043
0.0197588
0.0196224
0.0195032
0.0193917
0.0192767
0.0191736
0.0190801
0.0189894
0.0189012
0.0188245
0.0187542
0.0186881
0.018629
0.0185795
0.018535
0.0184956
0.0184628
0.0184359
0.0184121
0.0183921
0.0183762
0.0183632
0.018352
0.0183433
0.0183369
0.0183326
0.0183301
0.01833
0.0183332
0.0183394
0.0183486
0.0183621
0.0183804
0.0184026
0.0184294
0.0184618
0.0184992
0.0185406
0.0185879
0.0186403
0.0186968
0.0187577
0.0188243
0.018894
0.0189673
0.019045
0.0191265
0.019209
0.0192957
0.0193852
0.0194767
0.0195684
0.019665
0.0197617
0.0198593
0.0199563
0.0200574
0.0201541
0.0202506
0.0203433
0.0204371
0.0205209
0.0206032
0.0206763
0.0207478
0.020804
0.0208579
0.020897
0.0209336
0.0209505
0.0209657
0.0209615
0.0209557
0.0209265
0.0208989
0.0208475
0.0207976
0.020722
0.0206526
0.0205553
0.020465
0.0203474
0.0202409
0.0201033
0.0199812
0.0198292
0.0196947
0.0195286
0.019387
0.0192124
0.0190646
0.0188847
0.0187369
0.018554
0.0184073
0.0182263
0.0180838
0.0179053
0.0177697
0.0175977
0.0174697
0.0173056
0.0171883
0.0170346
0.0169281
0.016787
0.0166935
0.0165665
0.0164861
0.0163749
0.0163083
0.0162128
0.016159
0.0160793
0.0160372
0.015972
0.0159401
0.0158883
0.0158649
0.0158243
0.0158074
0.015776
0.0157636
0.0157396
0.0157312
0.0157139
0.0157089
0.0156975
0.0156955
0.0156886
0.0156886
0.0156858
0.0156888
0.0156905
0.0156973
0.0157042
0.0157143
0.015724
0.0157353
0.0157456
0.0157565
0.0157671
0.015779
0.0157915
0.0158055
0.0158205
0.0158363
0.0158526
0.0158695
0.0158874
0.0159075
0.0159307
0.0159581
0.01599
0.0160261
0.0160649
0.0161043
0.0161419
0.0161751
0.0162021
0.0162219
0.0162346
0.0162414
0.0162443
0.0162457
0.0162482
0.0162543
0.016266
0.0162845
0.0163107
0.0163446
0.0163856
0.0164328
0.0164848
0.0165402
0.0165975
0.0166552
0.0167118
0.0167664
0.0168179
0.0168659
0.0169099
0.0169499
0.0169859
0.0170182
0.0170472
0.0170732
0.0170967
0.0171181
0.0171377
0.0171558
0.0171726
0.0171884
0.0172033
0.0172174
0.0172308
0.0172436
0.0172559
0.0172676
0.0172788
0.0172896
0.0173001
0.0173103
0.0173205
0.0173308
0.0173413
0.0173523
0.0173638
0.017376
0.0173888
0.0174023
0.0174161
0.0174301
0.017444
0.0174573
0.0174699
0.0174812
0.0174909
0.0174986
0.0175043
0.0175075
0.0175085
0.017507
0.0175033
0.0174977
0.0174902
0.0174813
0.0174712
0.0174603
0.0174488
0.0174368
0.0174247
0.0174124
0.0174001
0.0173877
0.0173753
0.0173626
0.0173497
0.0173363
0.0173226
0.0173084
0.0172938
0.0172788
0.0172635
0.0172481
0.0172327
0.0172174
0.0172023
0.0171876
0.0171735
0.0171601
0.0171478
0.0171369
0.0171277
0.0171206
0.0171159
0.0171141
0.0171152
0.0171196
0.0171271
0.0171376
0.0171509
0.0171664
0.0171836
0.0172019
0.0172205
0.0172388
0.0172561
0.017272
0.0172859
0.0172976
0.017307
0.0173139
0.0173187
0.0173216
0.0173231
0.0173237
0.0173241
0.017325
0.0173269
0.0173305
0.017336
0.0173436
0.0173533
0.0173648
0.0173776
0.0173913
0.0174054
0.0174193
0.0174327
0.0174455
0.0174575
0.017469
0.0174802
0.0174916
0.0175036
0.0175168
0.0175317
0.0175488
0.0175683
0.0175902
0.0176145
0.0176405
0.0176678
0.0176953
0.0177224
0.017748
0.0177715
0.0177923
0.01781
0.0178246
0.0178362
0.0178452
0.017852
0.0178572
0.0178613
0.017865
0.0178686
0.0178726
0.0178775
0.0178834
0.0178905
0.0178989
0.0179082
0.0179181
0.0179279
0.0179369
0.0179442
0.017949
0.0179507
0.0179488
0.0179429
0.017933
0.017919
0.0179011
0.0178792
0.0178534
0.0178242
0.0177917
0.0177566
0.0177198
0.0176824
0.0176455
0.0176104
0.0175782
0.0175494
0.0175245
0.0175029
0.017484
0.0174664
0.0174486
0.0174293
0.0174073
0.0173822
0.0173542
0.0173241
0.0172937
0.0172649
0.0172399
0.0172207
0.0172088
0.0172045
0.0172075
0.0172169
0.0172308
0.0172473
0.0172655
0.0172848
0.0173041
0.0173237
0.0173433
0.0173433
0.04
0.0299926
0.0313453
0.0317371
0.0318615
0.0294961
0.0278557
0.0287755
0.0296302
0.0285051
0.0273995
0.0274193
0.0274203
0.0268338
0.026322
0.0261535
0.0258894
0.0255223
0.0252613
0.0250768
0.0248068
0.0245555
0.0243719
0.0241911
0.023971
0.0237909
0.0236394
0.0234795
0.0233144
0.0231822
0.0230567
0.0229269
0.022805
0.0227025
0.0225989
0.0224978
0.0224081
0.02233
0.0222531
0.022185
0.0221286
0.0220806
0.0220374
0.0220045
0.0219802
0.0219619
0.0219485
0.0219424
0.0219407
0.0219424
0.021947
0.0219552
0.0219655
0.021978
0.0219925
0.0220101
0.0220308
0.0220544
0.0220816
0.022114
0.0221507
0.0221916
0.0222382
0.0222908
0.022348
0.0224108
0.0224801
0.0225544
0.0226339
0.0227194
0.02281
0.0229047
0.0230048
0.0231091
0.0232167
0.0233279
0.0234439
0.0235614
0.0236816
0.0238053
0.0239325
0.0240586
0.0241882
0.0243196
0.0244518
0.02458
0.024711
0.0248389
0.024964
0.0250812
0.0251988
0.0253068
0.0254092
0.0254996
0.0255879
0.0256604
0.025727
0.0257773
0.025824
0.0258501
0.0258722
0.0258731
0.025871
0.0258454
0.0258184
0.0257659
0.0257143
0.0256363
0.0255607
0.0254568
0.0253602
0.0252333
0.0251156
0.0249685
0.0248357
0.0246696
0.0245234
0.0243454
0.02419
0.0240001
0.0238409
0.0236454
0.0234834
0.0232844
0.0231255
0.0229259
0.022771
0.0225747
0.0224279
0.0222367
0.0220996
0.0219175
0.0217929
0.0216215
0.0215109
0.0213535
0.0212581
0.0211156
0.0210357
0.0209098
0.0208445
0.0207348
0.0206832
0.0205895
0.0205495
0.0204705
0.0204404
0.0203748
0.0203518
0.0202977
0.0202804
0.0202363
0.0202233
0.0201888
0.0201801
0.0201539
0.0201485
0.0201296
0.0201267
0.0201137
0.0201139
0.0201076
0.0201114
0.020111
0.0201182
0.0201218
0.0201299
0.0201351
0.0201432
0.0201496
0.0201585
0.0201675
0.020179
0.0201909
0.0202045
0.0202185
0.0202337
0.02025
0.0202687
0.0202906
0.0203167
0.0203473
0.0203821
0.0204196
0.0204579
0.0204946
0.0205273
0.0205543
0.0205744
0.0205878
0.0205955
0.0205992
0.0206014
0.0206047
0.0206112
0.0206232
0.0206419
0.0206682
0.0207021
0.0207432
0.0207907
0.0208431
0.0208992
0.0209573
0.0210159
0.0210736
0.0211293
0.0211819
0.0212309
0.0212759
0.0213167
0.0213534
0.0213862
0.0214156
0.021442
0.0214659
0.0214876
0.0215076
0.0215262
0.0215436
0.0215601
0.0215759
0.021591
0.0216055
0.0216195
0.021633
0.021646
0.0216585
0.0216705
0.0216821
0.0216933
0.0217044
0.0217153
0.0217263
0.0217377
0.0217495
0.0217618
0.0217746
0.021788
0.0218018
0.0218158
0.0218297
0.0218433
0.021856
0.0218676
0.0218777
0.0218861
0.0218923
0.0218964
0.0218983
0.0218979
0.0218954
0.021891
0.0218848
0.0218773
0.0218686
0.021859
0.0218486
0.0218377
0.0218264
0.0218148
0.0218028
0.0217906
0.0217782
0.0217654
0.0217524
0.021739
0.0217253
0.0217114
0.0216972
0.0216829
0.0216686
0.0216543
0.0216401
0.0216261
0.0216123
0.0215989
0.0215859
0.0215736
0.021562
0.0215516
0.0215427
0.0215355
0.0215306
0.0215283
0.021529
0.0215328
0.0215399
0.0215502
0.0215634
0.0215792
0.021597
0.0216161
0.0216359
0.0216557
0.0216748
0.0216926
0.0217086
0.0217224
0.0217337
0.0217425
0.0217489
0.0217532
0.0217557
0.021757
0.0217579
0.0217588
0.0217604
0.0217633
0.0217678
0.0217741
0.0217823
0.0217922
0.0218034
0.0218156
0.0218282
0.0218409
0.0218533
0.0218652
0.0218766
0.0218876
0.0218986
0.02191
0.0219221
0.0219357
0.0219512
0.0219689
0.0219891
0.0220117
0.0220366
0.0220633
0.0220911
0.0221193
0.0221469
0.0221733
0.0221977
0.0222196
0.0222385
0.0222545
0.0222674
0.0222777
0.0222856
0.0222918
0.022297
0.0223017
0.0223065
0.022312
0.0223186
0.0223264
0.0223353
0.0223453
0.022356
0.0223669
0.0223774
0.0223868
0.0223945
0.0223998
0.0224022
0.0224011
0.0223961
0.0223871
0.0223739
0.0223566
0.0223353
0.0223104
0.0222821
0.0222511
0.0222179
0.0221836
0.022149
0.022115
0.0220827
0.0220528
0.0220257
0.0220017
0.0219805
0.0219613
0.0219433
0.0219251
0.0219056
0.021884
0.0218598
0.0218331
0.0218049
0.0217765
0.0217497
0.0217266
0.0217089
0.0216979
0.0216942
0.0216972
0.0217059
0.0217191
0.0217351
0.0217521
0.0217698
0.021788
0.0218067
0.0218252
0.0218252
0.04
0.0312099
0.0323039
0.0309405
0.0303102
0.030674
0.0319312
0.0314255
0.0299689
0.0297757
0.0305178
0.0302809
0.0294081
0.0290863
0.0291327
0.0288496
0.0284082
0.0281912
0.0280227
0.0277453
0.0274859
0.0273192
0.0271177
0.0268901
0.0267073
0.0265577
0.026378
0.0262079
0.0260697
0.0259386
0.0257945
0.0256689
0.025558
0.0254459
0.025333
0.0252369
0.025147
0.0250587
0.0249782
0.0249122
0.0248516
0.0247981
0.024756
0.0247256
0.0247011
0.0246859
0.0246803
0.024682
0.0246884
0.0247013
0.0247187
0.0247395
0.0247628
0.024789
0.0248177
0.0248492
0.024883
0.02492
0.0249613
0.0250066
0.0250556
0.02511
0.0251702
0.0252349
0.025305
0.0253819
0.0254644
0.025552
0.0256463
0.0257465
0.0258516
0.0259621
0.0260782
0.0261981
0.0263225
0.0264516
0.0265839
0.0267186
0.0268586
0.027001
0.0271451
0.0272919
0.0274435
0.0275942
0.0277455
0.0278981
0.0280524
0.028201
0.0283484
0.0284929
0.0286345
0.0287657
0.0288938
0.0290131
0.0291265
0.0292258
0.02932
0.0294003
0.0294738
0.0295291
0.0295789
0.0296106
0.0296353
0.0296384
0.0296379
0.0296149
0.0295865
0.0295347
0.0294825
0.0294032
0.0293242
0.0292204
0.0291201
0.0289903
0.0288699
0.0287214
0.0285835
0.0284158
0.0282669
0.0280853
0.0279258
0.0277337
0.0275701
0.0273696
0.0272037
0.0269995
0.0268355
0.0266291
0.0264704
0.0262665
0.0261162
0.0259168
0.0257783
0.0255874
0.0254626
0.0252823
0.0251735
0.0250064
0.0249137
0.0247607
0.0246844
0.0245466
0.0244848
0.024362
0.0243137
0.0242056
0.0241677
0.0240736
0.0240443
0.0239626
0.0239395
0.0238701
0.0238523
0.0237943
0.0237813
0.0237345
0.023725
0.0236878
0.0236814
0.0236531
0.0236494
0.0236296
0.0236297
0.0236175
0.0236201
0.0236136
0.0236171
0.0236134
0.0236168
0.0236158
0.0236204
0.0236228
0.0236301
0.0236366
0.0236463
0.0236557
0.0236676
0.0236803
0.0236963
0.0237152
0.0237388
0.0237667
0.0237991
0.0238341
0.0238704
0.0239053
0.0239367
0.0239629
0.0239828
0.0239963
0.0240046
0.0240091
0.0240121
0.0240161
0.0240233
0.0240356
0.0240546
0.0240809
0.0241149
0.024156
0.0242035
0.0242562
0.0243125
0.024371
0.0244302
0.0244885
0.0245448
0.0245981
0.0246477
0.0246932
0.0247344
0.0247714
0.0248045
0.024834
0.0248605
0.0248845
0.0249063
0.0249264
0.0249453
0.0249631
0.0249801
0.0249964
0.0250123
0.0250276
0.0250425
0.0250569
0.0250708
0.0250842
0.025097
0.0251092
0.0251209
0.0251322
0.0251432
0.0251542
0.0251652
0.0251766
0.0251883
0.0252005
0.0252132
0.0252262
0.0252395
0.0252527
0.0252655
0.0252777
0.0252888
0.0252986
0.0253067
0.0253129
0.025317
0.0253191
0.0253191
0.0253171
0.0253134
0.0253081
0.0253015
0.0252938
0.0252852
0.0252758
0.0252658
0.0252552
0.0252441
0.0252325
0.0252204
0.025208
0.0251951
0.0251819
0.0251684
0.0251547
0.0251409
0.025127
0.0251133
0.0250998
0.0250865
0.0250736
0.0250609
0.0250486
0.0250366
0.025025
0.0250138
0.0250033
0.0249937
0.0249852
0.0249783
0.0249733
0.0249707
0.024971
0.0249743
0.024981
0.0249909
0.0250039
0.0250197
0.0250378
0.0250576
0.0250784
0.0250996
0.0251203
0.0251399
0.0251579
0.0251737
0.025187
0.0251976
0.0252057
0.0252113
0.0252149
0.0252169
0.0252179
0.0252187
0.0252197
0.0252216
0.0252246
0.0252292
0.0252353
0.025243
0.0252519
0.0252618
0.0252723
0.025283
0.0252936
0.025304
0.0253142
0.0253242
0.0253345
0.0253453
0.0253573
0.0253708
0.0253865
0.0254044
0.0254249
0.0254479
0.025473
0.0254998
0.0255276
0.0255557
0.0255834
0.02561
0.0256346
0.025657
0.0256765
0.0256931
0.0257067
0.0257175
0.0257259
0.0257325
0.0257379
0.025743
0.0257484
0.0257547
0.0257622
0.0257709
0.0257808
0.0257915
0.0258025
0.0258132
0.0258232
0.0258319
0.0258387
0.0258432
0.0258448
0.025843
0.0258376
0.025828
0.0258143
0.0257963
0.0257744
0.025749
0.0257206
0.0256899
0.0256577
0.0256248
0.025592
0.0255601
0.0255295
0.0255009
0.0254746
0.0254504
0.0254282
0.0254076
0.0253876
0.0253677
0.0253467
0.0253242
0.0252998
0.0252737
0.0252465
0.0252195
0.0251942
0.0251724
0.0251556
0.0251448
0.0251405
0.0251424
0.0251495
0.0251605
0.0251744
0.0251898
0.025206
0.0252226
0.0252388
0.0252548
0.0252548
0.04
0.0291871
0.0296675
0.0309266
0.031718
0.0316344
0.0314117
0.0309218
0.0313547
0.0318431
0.0313929
0.0306995
0.030813
0.0310283
0.0306644
0.0301981
0.0301149
0.0300642
0.0297841
0.029521
0.0293941
0.0292385
0.0290136
0.0288427
0.0287094
0.0285439
0.028372
0.0282446
0.0281203
0.0279799
0.0278517
0.0277467
0.0276344
0.0275197
0.0274184
0.0273269
0.0272308
0.0271419
0.0270652
0.0269947
0.0269273
0.0268722
0.0268283
0.0267919
0.0267642
0.0267495
0.0267438
0.026746
0.0267566
0.0267753
0.026799
0.0268275
0.0268598
0.0268955
0.0269339
0.0269748
0.027018
0.0270648
0.0271151
0.0271683
0.0272256
0.0272885
0.0273554
0.0274268
0.0275047
0.0275885
0.0276771
0.0277721
0.0278739
0.0279807
0.0280932
0.0282119
0.0283355
0.0284634
0.0285968
0.0287339
0.0288745
0.0290197
0.0291689
0.0293197
0.0294747
0.029634
0.0297951
0.0299562
0.0301217
0.0302884
0.0304532
0.0306157
0.0307802
0.0309404
0.0310949
0.031244
0.0313915
0.0315291
0.031659
0.0317802
0.0318963
0.0319981
0.032092
0.0321734
0.0322466
0.0323026
0.0323513
0.0323825
0.0324048
0.0324084
0.0324051
0.03238
0.0323496
0.032298
0.0322411
0.0321614
0.0320817
0.0319773
0.0318738
0.0317473
0.0316262
0.0314779
0.0313405
0.0311768
0.0310264
0.0308471
0.0306888
0.0304988
0.0303339
0.0301352
0.0299694
0.0297652
0.0296009
0.0293948
0.0292369
0.0290318
0.0288832
0.0286827
0.0285472
0.0283538
0.0282332
0.0280495
0.0279456
0.0277727
0.0276853
0.0275248
0.0274534
0.0273054
0.0272481
0.0271136
0.0270683
0.0269462
0.0269106
0.0268014
0.026773
0.0266764
0.0266546
0.0265712
0.0265544
0.0264841
0.0264717
0.0264132
0.0264037
0.0263568
0.0263502
0.0263137
0.02631
0.0262833
0.0262816
0.0262617
0.0262605
0.0262456
0.0262441
0.0262331
0.0262329
0.026227
0.0262292
0.0262284
0.0262336
0.0262369
0.0262446
0.0262523
0.0262647
0.0262793
0.0262994
0.0263233
0.0263522
0.0263838
0.0264171
0.0264493
0.0264789
0.0265037
0.0265231
0.0265365
0.026545
0.0265499
0.0265534
0.0265577
0.0265649
0.0265771
0.0265956
0.0266213
0.0266544
0.0266947
0.0267414
0.0267933
0.0268491
0.0269072
0.0269661
0.0270243
0.0270806
0.0271339
0.0271835
0.0272289
0.02727
0.0273068
0.0273397
0.027369
0.0273951
0.0274187
0.0274402
0.0274601
0.0274788
0.0274964
0.0275134
0.0275299
0.0275459
0.0275614
0.0275766
0.0275913
0.0276055
0.0276191
0.027632
0.0276443
0.0276558
0.0276668
0.0276774
0.0276877
0.027698
0.0277084
0.027719
0.0277301
0.0277415
0.0277533
0.0277653
0.0277773
0.027789
0.0278002
0.0278104
0.0278194
0.0278269
0.0278326
0.0278365
0.0278384
0.0278385
0.0278368
0.0278336
0.0278289
0.027823
0.0278162
0.0278084
0.0277999
0.0277906
0.0277807
0.0277701
0.0277589
0.027747
0.0277346
0.0277216
0.0277081
0.0276944
0.0276804
0.0276665
0.0276527
0.0276391
0.027626
0.0276133
0.027601
0.0275892
0.0275778
0.0275668
0.0275561
0.0275459
0.0275361
0.0275269
0.0275187
0.0275117
0.0275065
0.0275034
0.0275029
0.0275054
0.0275112
0.0275203
0.0275327
0.027548
0.0275659
0.0275858
0.027607
0.0276289
0.0276507
0.0276717
0.0276912
0.0277087
0.0277237
0.0277359
0.0277453
0.027752
0.0277563
0.0277587
0.0277597
0.0277598
0.0277597
0.0277599
0.0277608
0.0277628
0.027766
0.0277705
0.0277762
0.0277828
0.0277902
0.0277979
0.0278057
0.0278137
0.0278216
0.0278298
0.0278384
0.0278479
0.0278588
0.0278715
0.0278864
0.0279038
0.0279237
0.027946
0.0279705
0.0279965
0.0280235
0.0280509
0.0280778
0.0281037
0.028128
0.02815
0.0281694
0.0281859
0.0281994
0.02821
0.0282182
0.0282244
0.0282295
0.0282344
0.0282397
0.028246
0.0282537
0.0282627
0.0282727
0.0282833
0.0282939
0.0283038
0.0283127
0.0283199
0.0283252
0.0283281
0.0283282
0.0283252
0.0283185
0.0283077
0.0282927
0.0282735
0.0282504
0.028224
0.028195
0.0281643
0.0281326
0.0281009
0.0280696
0.0280392
0.0280101
0.0279823
0.027956
0.0279311
0.0279073
0.0278844
0.027862
0.0278395
0.0278165
0.0277926
0.0277676
0.0277416
0.0277152
0.0276895
0.0276655
0.0276449
0.0276288
0.027618
0.0276128
0.0276131
0.0276182
0.0276267
0.0276376
0.0276502
0.0276637
0.0276778
0.0276923
0.0277066
0.0277066
0.04
0.0290591
0.0297513
0.0303321
0.0305625
0.0306863
0.0309284
0.0314488
0.0318638
0.0313455
0.0311109
0.0316262
0.0318503
0.031331
0.0310632
0.0312696
0.0312664
0.0309173
0.030734
0.0307415
0.0306178
0.0303927
0.03027
0.0301901
0.0300368
0.0298841
0.0297883
0.0296854
0.029551
0.0294418
0.0293549
0.0292518
0.0291412
0.0290518
0.0289659
0.02887
0.0287794
0.0287033
0.0286263
0.0285497
0.0284844
0.0284298
0.0283779
0.0283352
0.0283059
0.0282863
0.0282743
0.0282742
0.0282847
0.0283025
0.0283271
0.028359
0.0283956
0.0284361
0.0284798
0.0285265
0.0285761
0.0286288
0.0286836
0.0287418
0.0288045
0.0288706
0.0289402
0.0290158
0.0290968
0.0291819
0.0292732
0.0293715
0.029475
0.0295838
0.0296995
0.0298207
0.0299465
0.0300778
0.0302139
0.0303537
0.0304985
0.0306474
0.030799
0.0309547
0.0311159
0.0312786
0.0314433
0.0316128
0.0317856
0.0319561
0.0321278
0.0323019
0.0324742
0.0326405
0.0328061
0.0329691
0.0331258
0.0332739
0.0334186
0.0335557
0.0336845
0.0338023
0.0339136
0.0340135
0.034104
0.03418
0.0342477
0.0343011
0.0343432
0.0343683
0.0343858
0.0343851
0.0343735
0.034345
0.0343102
0.0342537
0.0341917
0.0341125
0.0340285
0.0339227
0.0338189
0.0336942
0.0335706
0.0334258
0.0332893
0.0331279
0.0329776
0.0328029
0.0326448
0.0324577
0.0322938
0.0320989
0.031934
0.031733
0.0315709
0.0313682
0.0312134
0.031011
0.030867
0.0306688
0.0305386
0.0303457
0.0302314
0.0300465
0.0299484
0.0297717
0.0296903
0.0295236
0.029457
0.0293004
0.0292475
0.0291017
0.0290592
0.0289248
0.0288916
0.0287695
0.0287436
0.0286354
0.0286159
0.0285215
0.0285066
0.0284263
0.0284147
0.0283472
0.0283386
0.028284
0.0282773
0.0282339
0.0282287
0.028194
0.0281883
0.0281603
0.0281542
0.028132
0.0281267
0.0281109
0.0281082
0.0280987
0.0280987
0.0280947
0.0280978
0.0280993
0.0281073
0.0281166
0.0281327
0.0281518
0.0281767
0.028204
0.0282338
0.0282626
0.0282896
0.0283123
0.0283302
0.0283428
0.0283508
0.0283555
0.0283589
0.028363
0.0283699
0.0283815
0.0283992
0.0284239
0.0284559
0.028495
0.0285404
0.0285912
0.0286458
0.0287029
0.0287609
0.0288184
0.0288739
0.0289266
0.0289756
0.0290204
0.0290609
0.0290971
0.0291292
0.0291578
0.0291833
0.0292061
0.029227
0.0292462
0.0292642
0.0292813
0.0292978
0.0293137
0.0293293
0.0293445
0.0293593
0.0293737
0.0293874
0.0294005
0.0294129
0.0294245
0.0294353
0.0294454
0.029455
0.0294641
0.0294731
0.0294821
0.0294913
0.0295008
0.0295106
0.0295207
0.0295311
0.0295414
0.0295516
0.0295612
0.0295701
0.0295778
0.0295841
0.0295889
0.0295919
0.0295932
0.0295928
0.0295909
0.0295875
0.0295829
0.0295773
0.0295708
0.0295635
0.0295555
0.0295468
0.0295375
0.0295273
0.0295164
0.0295047
0.0294922
0.029479
0.0294652
0.029451
0.0294365
0.029422
0.0294077
0.0293938
0.0293803
0.0293673
0.029355
0.0293433
0.029332
0.0293213
0.0293111
0.0293012
0.0292918
0.0292829
0.0292747
0.0292677
0.0292622
0.0292586
0.0292574
0.0292591
0.029264
0.0292721
0.0292835
0.0292981
0.0293153
0.0293348
0.029356
0.029378
0.0294004
0.0294221
0.0294426
0.0294612
0.0294773
0.0294907
0.0295011
0.0295086
0.0295134
0.0295158
0.0295164
0.0295157
0.0295141
0.0295123
0.0295107
0.0295097
0.0295095
0.0295104
0.0295122
0.0295149
0.0295183
0.0295223
0.0295266
0.0295312
0.0295362
0.0295418
0.0295481
0.0295557
0.029565
0.0295763
0.02959
0.0296062
0.0296251
0.0296463
0.0296696
0.0296945
0.0297204
0.0297466
0.0297725
0.0297974
0.0298208
0.0298421
0.0298608
0.0298767
0.0298897
0.0298997
0.0299073
0.029913
0.0299177
0.0299221
0.0299271
0.0299333
0.0299409
0.0299498
0.0299597
0.0299699
0.0299798
0.0299888
0.0299964
0.0300021
0.0300056
0.0300068
0.0300052
0.0300004
0.029992
0.0299797
0.029963
0.0299423
0.0299178
0.0298902
0.0298605
0.0298296
0.0297983
0.0297673
0.0297371
0.0297079
0.0296798
0.0296525
0.029626
0.0295999
0.0295742
0.0295487
0.0295234
0.0294981
0.0294726
0.0294469
0.029421
0.0293949
0.0293692
0.0293447
0.0293223
0.029303
0.0292877
0.0292773
0.0292716
0.0292705
0.0292735
0.0292797
0.0292882
0.0292983
0.0293093
0.029321
0.0293333
0.0293454
0.0293454
0.04
0.0297671
0.0303271
0.0299939
0.030363
0.0308278
0.0310031
0.03104
0.0310346
0.0312133
0.0316968
0.0316726
0.0313346
0.0314018
0.0317463
0.0316567
0.0313525
0.0313382
0.0314596
0.0313396
0.0311431
0.0310994
0.0310824
0.030956
0.0308332
0.0307799
0.0307097
0.0306006
0.0305174
0.0304579
0.0303746
0.0302834
0.0302122
0.0301427
0.0300575
0.0299772
0.0299081
0.0298356
0.0297589
0.0296922
0.0296321
0.0295722
0.0295179
0.0294759
0.029441
0.0294132
0.0293971
0.029393
0.0293969
0.0294103
0.0294334
0.0294638
0.0294997
0.0295413
0.029587
0.029636
0.0296886
0.0297434
0.0298006
0.0298619
0.029926
0.0299925
0.0300639
0.0301404
0.0302204
0.0303055
0.0303977
0.0304949
0.0305971
0.0307063
0.0308218
0.0309418
0.0310675
0.0311988
0.0313344
0.0314748
0.03162
0.0317684
0.0319215
0.0320796
0.0322406
0.032404
0.0325734
0.032746
0.0329186
0.033093
0.0332719
0.0334494
0.0336234
0.0337972
0.0339716
0.0341394
0.0343012
0.0344599
0.0346151
0.03476
0.0348975
0.0350292
0.0351532
0.0352642