# vtk DataFile Version 3.0
LBM output step 1150
ASCII
DATASET STRUCTURED_POINTS
DIMENSIONS 400 100 1
ORIGIN 0 0 0
SPACING 1 1 1
POINT_DATA 40000
SCALARS velocity_magnitude double 1
LOOKUP_TABLE default
0
0
0
0
0
0
0
0
0
0
0
0
0
0
0
0
0
0
0
0
0
0
0
0
0
0
0
0
0
0
0
0
0
0
0
0
0
0
0
0
0
0
0
0
0
0
0
0
0
0
0
0
0
0
0
0
0
0
0
0
0
0
0
0
0
0
0
0
0
0
0
0
0
0
0
0
0
0
0
0
0
0
0
0
0
0
0
0
0
0
0
0
0
0
0
0
0
0
0
0
0
0
0
0
0
0
0
0
0
0
0
0
0
0
0
0
0
0
0
0
0
0
0
0
0
0
0
0
0
0
0
0
0
0
0
0
0
0
0
0
0
0
0
0
0
0
0
0
0
0
0
0
0
0
0
0
0
0
0
0
0
0
0
0
0
0
0
0
0
0
0
0
0
0
0
0
0
0
0
0
0
0
0
0
0
0
0
0
0
0
0
0
0
0
0
0
0
0
0
0
0
0
0
0
0
0
0
0
0
0
0
0
0
0
0
0
0
0
0
0
0
0
0
0
0
0
0
0
0
0
0
0
0
0
0
0
0
0
0
0
0
0
0
0
0
0
0
0
0
0
0
0
0
0
0
0
0
0
0
0
0
0
0
0
0
0
0
0
0
0
0
0
0
0
0
0
0
0
0
0
0
0
0
0
0
0
0
0
0
0
0
0
0
0
0
0
0
0
0
0
0
0
0
0
0
0
0
0
0
0
0
0
0
0
0
0
0
0
0
0
0
0
0
0
0
0
0
0
0
0
0
0
0
0
0
0
0
0
0
0
0
0
0
0
0
0
0
0
0
0
0
0
0
0
0
0
0
0
0
0
0
0
0
0
0
0
0
0
0
0
0
0
0
0
0
0
0
0
0
0
0
0
0
0
0
0
0
0
0
0
0
0
0
0
0
0
0
0
0
0
0.04
0.0139195
0.00832054
0.0129022
0.0153814
0.0149856
0.0119447
0.0113089
0.0113419
0.0113915
0.0110626
0.0110815
0.010838
0.0106823
0.0105739
0.0105796
0.0104215
0.0103153
0.0102214
0.0101507
0.010018
0.00993364
0.00984236
0.00975274
0.00964675
0.00957526
0.00949379
0.00941566
0.00933692
0.00927534
0.00920255
0.00913318
0.00906373
0.00899892
0.00892506
0.00885496
0.00878445
0.00871521
0.0086425
0.00857449
0.00850669
0.00844001
0.00837353
0.00831
0.0082466
0.00818321
0.00812114
0.0080586
0.0079971
0.00793347
0.00787271
0.00780831
0.00774826
0.00768327
0.00762509
0.00756033
0.0075054
0.00744198
0.00739155
0.00733082
0.00728606
0.00722836
0.00718977
0.00713561
0.00710262
0.00705193
0.00702467
0.00697724
0.0069552
0.00691236
0.00689539
0.00685698
0.00684587
0.00681327
0.00680632
0.00677955
0.00677784
0.00675605
0.00675652
0.00674017
0.00674293
0.00672877
0.00673134
0.0067207
0.00672222
0.00671142
0.00671184
0.00670297
0.00670094
0.0066917
0.00668931
0.00668119
0.00667654
0.00666827
0.00666317
0.00665422
0.00664609
0.00663545
0.00662478
0.00661063
0.00659542
0.00657758
0.00655767
0.00653469
0.0065101
0.00648293
0.00645367
0.00642281
0.00639099
0.00635757
0.00632363
0.00628961
0.0062553
0.00622069
0.0061869
0.00615362
0.00612066
0.00608864
0.00605817
0.00602849
0.00599995
0.00597336
0.00594865
0.00592549
0.00590544
0.00588994
0.00587991
0.00587794
0.00588866
0.00591611
0.00596515
0.00604298
0.00615692
0.00631234
0.00651462
0.00676813
0.0070728
0.00742415
0.00781532
0.00823487
0.00866576
0.00908852
0.00948305
0.00982776
0.0101025
0.0102938
0.0103964
0.0104135
0.0103599
0.0102599
0.0101402
0.010023
0.00992218
0.00984121
0.00977387
0.00971198
0.0096529
0.00960077
0.00956397
0.00955139
0.00956703
0.00960607
0.00965715
0.00970784
0.00974789
0.0097703
0.00977193
0.00975331
0.00971762
0.00967037
0.00961931
0.00957246
0.0095351
0.00950837
0.00948993
0.00947541
0.00946
0.00944002
0.00941368
0.00938075
0.0093423
0.00930019
0.00925605
0.00921034
0.00916252
0.00911184
0.00905812
0.00900235
0.00894671
0.00889396
0.00884659
0.0088065
0.00877506
0.00875323
0.0087415
0.00873985
0.00874758
0.00876318
0.00878445
0.00880877
0.00883338
0.00885555
0.00887288
0.00888355
0.00888647
0.00888134
0.00886863
0.00884954
0.00882566
0.00879875
0.00877038
0.00874165
0.00871314
0.00868499
0.00865718
0.00862979
0.00860314
0.00857794
0.00855513
0.00853566
0.00852021
0.00850889
0.00850115
0.0084958
0.00849129
0.00848602
0.00847878
0.00846896
0.00845663
0.00844238
0.00842709
0.00841169
0.008397
0.00838362
0.00837195
0.00836213
0.00835411
0.00834756
0.00834193
0.00833648
0.00833039
0.00832292
0.00831354
0.00830208
0.00828876
0.00827411
0.00825885
0.00824377
0.00822956
0.00821682
0.00820602
0.00819753
0.00819166
0.00818862
0.00818849
0.00819111
0.00819613
0.00820297
0.00821089
0.00821911
0.00822686
0.00823339
0.00823806
0.00824027
0.00823948
0.00823529
0.00822746
0.00821599
0.00820117
0.00818364
0.00816428
0.00814423
0.00812469
0.00810684
0.00809169
0.00807997
0.00807215
0.00806836
0.00806853
0.00807239
0.00807961
0.00808981
0.00810266
0.0081179
0.00813533
0.00815481
0.00817614
0.00819908
0.00822326
0.00824819
0.00827334
0.00829817
0.00832233
0.0083457
0.00836846
0.00839111
0.0084144
0.00843924
0.00846647
0.00849677
0.00853041
0.00856721
0.00860644
0.00864687
0.00868687
0.00872461
0.00875823
0.00878604
0.00880677
0.00881964
0.00882449
0.00882179
0.0088125
0.008798
0.00877987
0.00875975
0.00873913
0.00871925
0.00870103
0.00868504
0.00867146
0.0086601
0.00865048
0.00864185
0.00863335
0.00862417
0.0086137
0.00860174
0.00858856
0.0085749
0.00856182
0.00855043
0.00854162
0.0085358
0.00853278
0.00853182
0.00853191
0.00853208
0.00853178
0.00853111
0.00853083
0.00853217
0.00853645
0.00854463
0.00855707
0.00857347
0.00859302
0.00861482
0.00863809
0.00866242
0.00868767
0.00871383
0.00874074
0.00876799
0.00879482
0.00882021
0.00884299
0.00886191
0.00887575
0.00888333
0.00888366
0.00887616
0.00886079
0.00883824
0.00880986
0.0087775
0.00874327
0.00870928
0.00867743
0.00864931
0.00862615
0.00860875
0.00859747
0.00859207
0.0085918
0.00859539
0.00860123
0.00860753
0.00861264
0.0086152
0.0086143
0.00860965
0.00860156
0.00859101
0.0085794
0.00856845
0.00855995
0.00855529
0.00855553
0.00856095
0.0085713
0.00858553
0.00860231
0.00861974
0.00863587
0.00864894
0.00865798
0.00866042
0.0086551
0.0086551
0.04
0.0230241
0.0246617
0.02208
0.0149952
0.0142009
0.0172233
0.0178613
0.0162265
0.0155986
0.0157097
0.0155523
0.0152189
0.0151786
0.015034
0.0147806
0.0146151
0.0145676
0.0144109
0.0142385
0.0141266
0.014036
0.0138961
0.0137857
0.0137079
0.013627
0.0135365
0.0134779
0.013429
0.0133723
0.0133166
0.0132745
0.0132253
0.0131681
0.0131122
0.0130589
0.0129981
0.0129365
0.0128791
0.0128233
0.0127663
0.0127132
0.012665
0.0126176
0.0125726
0.0125303
0.0124918
0.012452
0.0124165
0.0123797
0.0123483
0.0123124
0.0122845
0.0122507
0.0122278
0.0121953
0.0121781
0.0121491
0.0121394
0.0121129
0.0121118
0.0120903
0.0120974
0.0120791
0.0120965
0.0120823
0.0121067
0.0120975
0.012132
0.0121257
0.0121675
0.0121691
0.0122185
0.0122232
0.0122808
0.0122938
0.0123541
0.0123711
0.0124378
0.0124597
0.0125235
0.0125494
0.012615
0.0126406
0.0126997
0.0127284
0.012784
0.0128087
0.0128574
0.0128835
0.012925
0.0129457
0.0129808
0.0129994
0.0130246
0.0130362
0.0130529
0.0130571
0.0130617
0.0130563
0.0130491
0.0130325
0.0130129
0.0129846
0.0129522
0.0129137
0.0128707
0.0128213
0.0127699
0.0127145
0.0126549
0.0125936
0.012532
0.0124667
0.0124005
0.0123361
0.0122706
0.0122036
0.0121396
0.0120775
0.0120144
0.0119537
0.0118975
0.0118426
0.0117902
0.0117449
0.0117071
0.0116774
0.0116621
0.0116672
0.0116963
0.0117564
0.0118572
0.0120055
0.0122059
0.0124638
0.0127819
0.0131561
0.0135787
0.0140396
0.0145231
0.0150082
0.0154728
0.0158954
0.0162545
0.0165325
0.0167217
0.0168245
0.0168532
0.0168293
0.0167798
0.016728
0.0166871
0.0166602
0.0166429
0.0166276
0.0166108
0.0165974
0.0165978
0.0166212
0.0166713
0.0167443
0.0168299
0.0169148
0.0169887
0.0170452
0.0170809
0.0170953
0.017091
0.0170735
0.0170503
0.0170288
0.0170148
0.0170098
0.0170114
0.0170156
0.0170179
0.0170149
0.0170046
0.0169865
0.0169619
0.0169324
0.0168995
0.0168639
0.0168253
0.0167827
0.0167361
0.0166867
0.0166366
0.0165885
0.0165452
0.0165087
0.0164805
0.0164616
0.0164527
0.0164541
0.016465
0.0164842
0.0165095
0.0165385
0.0165684
0.0165966
0.0166206
0.0166385
0.0166491
0.0166519
0.0166471
0.0166358
0.0166193
0.0165992
0.016577
0.0165537
0.01653
0.0165063
0.0164826
0.0164592
0.0164365
0.0164154
0.0163966
0.0163811
0.0163695
0.0163617
0.0163573
0.0163551
0.0163534
0.0163509
0.0163462
0.0163389
0.0163289
0.0163167
0.0163033
0.0162894
0.0162758
0.0162632
0.0162521
0.0162426
0.0162346
0.0162279
0.0162221
0.0162163
0.0162098
0.0162019
0.0161919
0.0161798
0.0161656
0.0161498
0.016133
0.0161161
0.0160998
0.0160847
0.0160713
0.0160601
0.0160515
0.0160459
0.0160435
0.0160443
0.0160482
0.0160546
0.0160631
0.0160727
0.0160829
0.0160928
0.0161017
0.0161089
0.0161138
0.0161158
0.0161146
0.0161101
0.0161025
0.0160924
0.0160806
0.0160681
0.0160561
0.0160456
0.0160378
0.0160333
0.0160326
0.0160359
0.0160432
0.0160542
0.0160685
0.0160859
0.0161058
0.0161279
0.0161519
0.0161774
0.0162042
0.016232
0.0162603
0.0162888
0.016317
0.0163445
0.0163711
0.0163969
0.0164223
0.0164477
0.016474
0.0165023
0.0165333
0.0165677
0.0166058
0.0166475
0.0166918
0.0167376
0.0167831
0.0168263
0.0168653
0.0168984
0.016924
0.0169414
0.0169504
0.0169513
0.0169453
0.0169338
0.0169185
0.016901
0.016883
0.0168659
0.0168506
0.0168379
0.0168279
0.0168204
0.0168149
0.0168107
0.0168068
0.0168023
0.0167967
0.0167896
0.0167813
0.0167725
0.0167643
0.0167577
0.0167538
0.0167529
0.0167551
0.0167596
0.0167655
0.0167718
0.0167779
0.0167838
0.0167902
0.0167981
0.0168087
0.0168228
0.0168406
0.0168617
0.0168855
0.016911
0.0169374
0.0169645
0.0169921
0.0170201
0.0170483
0.0170764
0.0171035
0.0171284
0.0171502
0.0171675
0.0171791
0.0171842
0.0171817
0.0171713
0.0171534
0.0171286
0.0170985
0.0170652
0.0170309
0.0169975
0.0169671
0.0169412
0.0169209
0.0169069
0.0168993
0.016898
0.0169019
0.0169096
0.0169195
0.0169297
0.0169386
0.0169447
0.0169473
0.016946
0.0169412
0.016934
0.0169258
0.0169182
0.0169131
0.0169117
0.0169152
0.0169235
0.0169365
0.0169529
0.0169711
0.0169893
0.0170055
0.0170178
0.0170246
0.017025
0.017019
0.017019
0.04
0.0238938
0.022016
0.0190322
0.0201608
0.0222507
0.0212811
0.0196196
0.0197941
0.0203028
0.019762
0.0191678
0.0190531
0.0189625
0.0186347
0.0184326
0.0183093
0.0181191
0.0178952
0.0177737
0.017644
0.0174799
0.0173367
0.0172475
0.0171436
0.017044
0.0169757
0.016931
0.0168775
0.0168374
0.0168125
0.0167872
0.0167517
0.0167215
0.0166904
0.0166515
0.016608
0.0165687
0.0165278
0.0164855
0.0164464
0.0164125
0.0163798
0.0163498
0.0163248
0.0163025
0.0162829
0.0162648
0.0162515
0.0162375
0.0162287
0.0162177
0.0162143
0.0162066
0.0162091
0.0162043
0.0162143
0.0162139
0.0162318
0.016235
0.0162635
0.0162713
0.0163087
0.0163214
0.0163707
0.0163863
0.0164462
0.0164679
0.0165387
0.0165636
0.0166472
0.0166782
0.0167705
0.0168068
0.0169109
0.0169508
0.0170603
0.0171066
0.0172218
0.0172683
0.017385
0.0174364
0.0175502
0.0175994
0.0177107
0.0177614
0.0178629
0.0179107
0.0180064
0.018052
0.0181344
0.0181764
0.0182497
0.0182854
0.0183431
0.0183721
0.0184166
0.0184339
0.0184604
0.0184666
0.0184762
0.018466
0.0184571
0.0184335
0.0184058
0.0183653
0.0183231
0.0182695
0.0182106
0.018146
0.0180783
0.0180024
0.0179249
0.0178453
0.0177617
0.0176752
0.0175904
0.0175039
0.0174155
0.0173293
0.0172452
0.0171604
0.017078
0.0170002
0.0169255
0.0168547
0.0167929
0.0167418
0.0167035
0.0166844
0.0166917
0.0167306
0.0168083
0.0169335
0.0171125
0.017348
0.0176419
0.0179925
0.018392
0.0188281
0.0192858
0.0197459
0.0201857
0.0205827
0.0209169
0.0211727
0.0213412
0.0214255
0.0214401
0.0214079
0.0213552
0.0213056
0.0212731
0.0212589
0.0212555
0.0212547
0.021253
0.0212544
0.0212692
0.0213083
0.0213754
0.0214653
0.021567
0.0216677
0.021757
0.0218284
0.0218797
0.0219111
0.0219249
0.0219262
0.0219225
0.0219216
0.0219282
0.0219437
0.0219656
0.0219896
0.0220115
0.022028
0.0220376
0.0220396
0.0220352
0.0220259
0.0220133
0.0219981
0.0219796
0.0219573
0.0219309
0.0219016
0.0218715
0.0218434
0.0218198
0.0218026
0.0217932
0.0217924
0.0218008
0.0218184
0.0218447
0.0218782
0.0219172
0.0219591
0.0220014
0.0220416
0.0220774
0.0221071
0.0221295
0.0221443
0.0221519
0.0221531
0.0221492
0.0221416
0.0221316
0.0221203
0.0221083
0.022096
0.0220835
0.0220713
0.02206
0.0220501
0.0220427
0.0220385
0.0220379
0.022041
0.022047
0.0220548
0.022063
0.0220703
0.0220754
0.0220779
0.0220777
0.0220753
0.0220713
0.0220668
0.0220623
0.0220585
0.0220558
0.0220545
0.0220545
0.0220555
0.0220572
0.0220587
0.0220595
0.0220587
0.0220561
0.0220513
0.0220445
0.0220363
0.0220272
0.022018
0.0220093
0.0220016
0.0219955
0.0219913
0.0219894
0.0219901
0.0219936
0.0219999
0.0220088
0.02202
0.0220328
0.0220466
0.0220608
0.0220745
0.0220873
0.0220984
0.0221073
0.0221138
0.0221174
0.0221182
0.0221164
0.0221126
0.0221074
0.0221018
0.0220968
0.0220933
0.0220923
0.0220943
0.0220998
0.0221089
0.0221216
0.0221379
0.0221573
0.0221796
0.0222043
0.0222311
0.0222595
0.0222891
0.0223195
0.0223503
0.022381
0.0224112
0.0224406
0.0224688
0.0224958
0.0225217
0.0225469
0.022572
0.0225979
0.0226254
0.0226556
0.022689
0.0227262
0.0227669
0.0228105
0.022856
0.0229018
0.0229459
0.0229867
0.0230222
0.0230511
0.0230725
0.0230862
0.0230926
0.0230924
0.0230872
0.0230783
0.0230675
0.023056
0.0230451
0.0230357
0.0230283
0.023023
0.0230196
0.0230176
0.0230165
0.0230154
0.0230136
0.0230108
0.0230068
0.023002
0.0229971
0.0229929
0.0229906
0.0229909
0.0229941
0.0230001
0.023008
0.023017
0.0230261
0.0230349
0.0230433
0.023052
0.023062
0.0230744
0.0230898
0.0231086
0.0231305
0.023155
0.0231813
0.0232089
0.0232376
0.0232673
0.0232979
0.023329
0.0233599
0.0233897
0.0234171
0.023441
0.0234601
0.0234733
0.0234799
0.023479
0.0234705
0.0234547
0.0234327
0.0234059
0.0233763
0.0233459
0.0233168
0.0232905
0.0232684
0.0232516
0.0232406
0.0232356
0.0232361
0.0232415
0.0232503
0.023261
0.0232719
0.0232815
0.0232885
0.0232922
0.0232924
0.0232894
0.0232842
0.0232782
0.023273
0.0232701
0.0232708
0.0232761
0.023286
0.0233001
0.0233173
0.023336
0.0233542
0.0233703
0.0233824
0.0233891
0.0233897
0.0233836
0.0233836
0.04
0.0256946
0.0269288
0.0269092
0.0266183
0.0240114
0.0224444
0.0234312
0.0241351
0.0230058
0.0221221
0.022322
0.0223477
0.0218435
0.0215063
0.0214675
0.0212632
0.0209773
0.0208185
0.0207085
0.0204984
0.0203235
0.020217
0.0201033
0.0199593
0.0198705
0.0198113
0.0197461
0.0196879
0.0196693
0.0196537
0.0196325
0.0196187
0.0196163
0.0196013
0.0195808
0.0195634
0.0195459
0.0195203
0.0194973
0.0194788
0.0194612
0.0194437
0.0194323
0.0194246
0.0194183
0.0194153
0.0194156
0.0194188
0.0194224
0.0194306
0.0194385
0.0194517
0.0194633
0.0194824
0.0194976
0.0195243
0.0195439
0.0195776
0.0196021
0.0196458
0.0196738
0.019727
0.0197609
0.0198247
0.0198619
0.019939
0.0199816
0.0200702
0.0201184
0.0202222
0.0202738
0.0203904
0.0204486
0.020577
0.0206362
0.0207766
0.0208397
0.0209844
0.0210479
0.0212
0.0212624
0.0214115
0.0214753
0.0216239
0.0216826
0.0218234
0.0218839
0.0220161
0.02207
0.0221918
0.0222453
0.0223519
0.0223978
0.0224907
0.0225304
0.0226032
0.0226322
0.0226864
0.0227019
0.0227338
0.0227346
0.0227436
0.0227272
0.0227152
0.0226809
0.0226471
0.0225982
0.0225462
0.0224806
0.0224145
0.0223384
0.0222575
0.0221715
0.0220844
0.02199
0.0218943
0.0217984
0.0217001
0.0215992
0.021501
0.0214034
0.0213051
0.0212096
0.0211192
0.0210322
0.0209515
0.0208821
0.020827
0.0207896
0.0207775
0.0207986
0.0208591
0.020966
0.0211269
0.0213462
0.0216242
0.0219579
0.0223415
0.0227629
0.0232051
0.0236487
0.0240728
0.0244541
0.024771
0.0250083
0.025159
0.025225
0.0252206
0.0251709
0.0251039
0.0250422
0.0249994
0.0249771
0.0249661
0.0249557
0.0249428
0.024933
0.024937
0.0249658
0.0250243
0.0251069
0.0252008
0.025293
0.025374
0.0254383
0.0254838
0.0255109
0.0255222
0.0255221
0.0255175
0.0255162
0.0255231
0.0255389
0.0255606
0.0255844
0.0256063
0.0256233
0.0256342
0.0256386
0.0256371
0.025631
0.0256219
0.0256105
0.0255961
0.0255782
0.0255567
0.0255327
0.0255084
0.0254864
0.0254692
0.0254586
0.0254556
0.0254612
0.0254757
0.025499
0.0255307
0.0255692
0.0256129
0.0256595
0.0257065
0.0257516
0.0257925
0.0258277
0.025856
0.0258773
0.0258918
0.0259001
0.0259034
0.0259027
0.0258992
0.0258938
0.0258873
0.0258801
0.0258727
0.0258658
0.02586
0.0258561
0.0258551
0.0258574
0.0258634
0.0258728
0.025885
0.0258989
0.0259131
0.0259263
0.0259378
0.0259468
0.0259534
0.0259579
0.0259609
0.025963
0.025965
0.0259675
0.0259709
0.0259755
0.0259813
0.0259879
0.0259951
0.026002
0.0260082
0.0260129
0.0260157
0.0260165
0.0260155
0.026013
0.0260097
0.0260061
0.0260029
0.0260006
0.0259995
0.026
0.0260024
0.0260071
0.0260141
0.0260236
0.0260353
0.026049
0.0260641
0.02608
0.0260963
0.0261122
0.0261272
0.0261407
0.0261524
0.026162
0.0261692
0.0261741
0.026177
0.0261782
0.0261784
0.0261784
0.0261791
0.0261812
0.0261855
0.0261925
0.0262026
0.0262161
0.026233
0.0262533
0.0262767
0.026303
0.0263317
0.0263624
0.0263944
0.0264273
0.0264604
0.0264931
0.026525
0.0265557
0.0265848
0.0266122
0.026638
0.0266624
0.0266859
0.0267092
0.0267331
0.0267587
0.0267867
0.0268181
0.0268532
0.026892
0.0269341
0.0269784
0.0270236
0.0270679
0.0271094
0.0271464
0.0271774
0.0272016
0.0272185
0.0272285
0.0272324
0.0272313
0.0272267
0.02722
0.0272126
0.0272054
0.0271993
0.0271947
0.0271915
0.0271897
0.0271887
0.027188
0.0271871
0.0271855
0.027183
0.0271796
0.0271757
0.0271721
0.0271697
0.0271692
0.0271714
0.0271764
0.027184
0.0271933
0.0272036
0.0272138
0.0272236
0.0272331
0.0272428
0.0272536
0.0272665
0.0272821
0.0273006
0.0273219
0.0273456
0.0273714
0.0273988
0.0274279
0.0274585
0.0274903
0.0275227
0.0275549
0.0275855
0.0276133
0.0276369
0.0276553
0.0276672
0.0276722
0.0276695
0.0276594
0.0276424
0.0276196
0.0275926
0.0275634
0.0275339
0.0275057
0.0274804
0.0274591
0.0274427
0.0274316
0.0274258
0.0274251
0.0274285
0.0274348
0.0274428
0.0274508
0.0274575
0.0274619
0.0274632
0.0274614
0.0274568
0.0274505
0.0274436
0.0274378
0.0274345
0.0274349
0.0274396
0.0274487
0.0274617
0.0274773
0.0274941
0.0275102
0.0275241
0.0275339
0.0275389
0.0275382
0.0275315
0.0275315
0.04
0.0265759
0.0276674
0.0263052
0.0255215
0.0256254
0.0266526
0.0260112
0.0245844
0.0244502
0.0251199
0.0248248
0.0240591
0.0238923
0.0239838
0.0237196
0.0233695
0.0232562
0.0231384
0.0229051
0.0227169
0.0226173
0.0224661
0.022299
0.0221888
0.0221086
0.0220013
0.0219212
0.0218819
0.0218524
0.0218182
0.0218121
0.0218189
0.0218198
0.0218174
0.0218256
0.0218283
0.0218231
0.0218183
0.0218182
0.0218135
0.0218091
0.0218098
0.0218137
0.0218171
0.0218244
0.0218357
0.0218482
0.0218625
0.0218794
0.0218991
0.021919
0.021943
0.0219672
0.0219961
0.0220244
0.0220598
0.0220917
0.0221339
0.0221713
0.0222205
0.0222616
0.0223209
0.0223667
0.022435
0.0224868
0.0225679
0.022624
0.022719
0.0227822
0.0228911
0.0229587
0.0230847
0.0231558
0.0232943
0.0233691
0.0235217
0.0235941
0.0237566
0.023831
0.0239993
0.0240681
0.0242426
0.0243107
0.0244816
0.0245453
0.0247165
0.0247774
0.0249376
0.0249965
0.0251498
0.025204
0.0253411
0.0253927
0.0255155
0.0255588
0.0256603
0.0256965
0.0257773
0.0257994
0.0258551
0.0258649
0.0258958
0.0258862
0.0258926
0.0258681
0.0258484
0.0258048
0.0257668
0.0257073
0.0256467
0.0255752
0.025502
0.0254149
0.0253284
0.0252363
0.0251391
0.0250368
0.0249363
0.0248315
0.024724
0.0246176
0.0245128
0.0244065
0.0243029
0.0242051
0.0241128
0.0240284
0.0239582
0.0239073
0.0238798
0.0238836
0.0239279
0.0240193
0.0241635
0.0243656
0.0246281
0.0249473
0.0253154
0.0257217
0.0261504
0.0265806
0.0269897
0.0273561
0.0276586
0.0278799
0.0280124
0.0280604
0.0280387
0.0279715
0.0278888
0.0278161
0.0277656
0.0277368
0.0277206
0.0277053
0.0276851
0.0276658
0.0276606
0.0276809
0.0277307
0.027805
0.0278911
0.0279748
0.0280463
0.0281016
0.0281396
0.0281603
0.0281657
0.0281606
0.0281516
0.0281456
0.0281476
0.0281584
0.028175
0.0281932
0.0282098
0.0282223
0.0282292
0.0282299
0.0282251
0.028216
0.0282038
0.0281895
0.0281728
0.0281528
0.0281295
0.0281041
0.0280786
0.0280557
0.0280377
0.0280264
0.0280227
0.0280271
0.02804
0.0280613
0.0280903
0.0281257
0.028166
0.0282089
0.0282524
0.0282941
0.0283322
0.028365
0.0283918
0.0284122
0.0284263
0.0284348
0.0284382
0.0284375
0.0284336
0.0284272
0.0284193
0.0284104
0.0284014
0.0283931
0.0283863
0.0283821
0.0283811
0.0283837
0.0283901
0.0283997
0.0284119
0.0284254
0.0284393
0.0284525
0.0284641
0.0284738
0.0284813
0.0284868
0.0284909
0.0284939
0.0284967
0.0284998
0.0285036
0.0285086
0.0285146
0.0285214
0.0285287
0.0285359
0.0285422
0.0285473
0.0285507
0.0285522
0.0285519
0.0285503
0.0285478
0.028545
0.0285425
0.0285408
0.0285401
0.0285407
0.028543
0.0285471
0.0285532
0.0285614
0.0285714
0.0285832
0.0285962
0.0286099
0.028624
0.0286379
0.0286511
0.0286633
0.0286741
0.0286832
0.0286908
0.0286967
0.0287011
0.0287046
0.0287074
0.0287103
0.0287138
0.0287187
0.0287255
0.0287346
0.0287465
0.0287614
0.0287795
0.0288008
0.0288251
0.0288523
0.0288819
0.0289132
0.0289457
0.0289785
0.0290109
0.0290423
0.029072
0.0290996
0.0291251
0.0291483
0.0291694
0.0291889
0.0292073
0.0292254
0.0292441
0.0292643
0.029287
0.029313
0.0293427
0.0293764
0.0294137
0.0294536
0.029495
0.0295361
0.0295751
0.0296104
0.0296406
0.0296645
0.0296819
0.0296929
0.0296983
0.0296991
0.0296966
0.0296922
0.029687
0.0296819
0.0296775
0.0296742
0.0296717
0.02967
0.0296687
0.0296671
0.029665
0.0296621
0.0296583
0.0296539
0.0296494
0.0296456
0.0296431
0.0296429
0.0296453
0.0296504
0.029658
0.0296671
0.0296769
0.0296866
0.0296958
0.0297044
0.0297131
0.0297225
0.0297335
0.0297467
0.0297623
0.0297804
0.0298007
0.0298231
0.0298476
0.0298741
0.0299026
0.0299325
0.0299633
0.0299936
0.030022
0.030047
0.0300673
0.0300816
0.0300892
0.0300895
0.0300822
0.0300677
0.0300469
0.0300211
0.0299918
0.0299611
0.0299305
0.0299016
0.0298756
0.0298534
0.0298355
0.0298224
0.0298139
0.0298097
0.0298091
0.0298108
0.0298139
0.0298168
0.0298186
0.0298182
0.0298152
0.0298095
0.0298016
0.0297925
0.0297834
0.0297757
0.0297707
0.0297694
0.0297723
0.0297795
0.0297902
0.0298033
0.0298173
0.0298304
0.0298412
0.029848
0.0298503
0.0298474
0.0298394
0.0298394
0.04
0.0245666
0.0251089
0.0262866
0.0270149
0.0268723
0.0265201
0.0258767
0.0262002
0.0265878
0.0260924
0.025431
0.0255635
0.0257448
0.0253899
0.025011
0.0249932
0.024949
0.0246913
0.0244927
0.0244161
0.0242839
0.0240938
0.0239738
0.0238815
0.0237537
0.0236344
0.0235703
0.0235109
0.0234488
0.0234167
0.023416
0.0234114
0.0234122
0.0234289
0.0234493
0.0234587
0.0234707
0.0234862
0.0234973
0.0235037
0.0235154
0.0235286
0.0235403
0.0235539
0.0235722
0.0235909
0.0236105
0.0236331
0.0236574
0.0236827
0.0237099
0.0237397
0.0237699
0.0238039
0.0238388
0.0238771
0.0239155
0.0239607
0.0240031
0.0240531
0.0241009
0.0241592
0.0242102
0.0242778
0.0243363
0.0244143
0.0244786
0.024572
0.0246428
0.0247502
0.0248283
0.0249523
0.0250326
0.025173
0.0252566
0.0254095
0.0254914
0.0256599
0.0257381
0.0259135
0.0259894
0.0261747
0.0262419
0.026429
0.0264961
0.026683
0.026741
0.0269254
0.0269844
0.0271577
0.0272101
0.027375
0.0274258
0.0275705
0.0276153
0.027744
0.0277805
0.0278833
0.0279112
0.0279897
0.0280022
0.028054
0.0280527
0.0280753
0.0280566
0.0280554
0.0280179
0.0279906
0.0279395
0.027891
0.0278217
0.0277568
0.0276765
0.0275933
0.0275019
0.0274104
0.0273084
0.0272056
0.0271003
0.0269923
0.0268801
0.02677
0.0266596
0.0265491
0.0264419
0.0263416
0.0262486
0.0261673
0.0261045
0.0260661
0.0260582
0.026089
0.0261672
0.0262993
0.0264887
0.0267374
0.0270438
0.0274001
0.0277934
0.0282082
0.0286254
0.0290214
0.0293725
0.0296589
0.0298644
0.0299799
0.0300091
0.0299697
0.0298873
0.0297913
0.0297083
0.0296521
0.0296201
0.0295997
0.0295788
0.0295518
0.0295235
0.0295081
0.0295195
0.029562
0.0296284
0.0297057
0.0297801
0.0298419
0.0298875
0.0299172
0.0299321
0.0299331
0.0299239
0.0299112
0.0299019
0.0299001
0.0299063
0.0299179
0.0299307
0.0299415
0.0299488
0.0299516
0.0299489
0.0299411
0.0299291
0.0299142
0.0298971
0.0298777
0.0298554
0.0298302
0.0298032
0.0297764
0.0297524
0.0297334
0.0297209
0.0297156
0.029718
0.0297283
0.0297462
0.029771
0.0298017
0.0298366
0.029874
0.029912
0.0299484
0.0299817
0.0300104
0.0300337
0.0300515
0.0300637
0.0300707
0.0300727
0.0300703
0.0300641
0.0300548
0.0300432
0.0300302
0.0300169
0.0300046
0.0299942
0.0299868
0.029983
0.0299832
0.029987
0.0299939
0.030003
0.0300133
0.0300239
0.0300339
0.0300428
0.0300501
0.0300556
0.0300594
0.0300616
0.0300629
0.0300636
0.0300645
0.030066
0.0300685
0.0300721
0.0300764
0.0300812
0.0300859
0.0300899
0.0300927
0.0300939
0.0300934
0.0300913
0.0300879
0.0300836
0.0300791
0.0300748
0.0300712
0.0300684
0.0300668
0.0300665
0.0300676
0.0300703
0.0300746
0.0300803
0.0300872
0.0300951
0.0301035
0.0301123
0.0301209
0.0301292
0.0301369
0.0301438
0.0301499
0.030155
0.0301593
0.0301629
0.030166
0.030169
0.0301722
0.0301761
0.030181
0.0301876
0.0301961
0.0302069
0.0302204
0.0302367
0.0302561
0.0302785
0.0303036
0.030331
0.0303602
0.0303902
0.0304203
0.0304495
0.0304771
0.0305024
0.030525
0.0305449
0.030562
0.0305767
0.0305895
0.0306011
0.0306123
0.0306239
0.0306371
0.0306526
0.0306714
0.030694
0.0307207
0.0307511
0.0307846
0.03082
0.0308558
0.0308903
0.0309217
0.0309488
0.0309705
0.0309863
0.0309965
0.0310015
0.0310024
0.0310004
0.0309966
0.030992
0.0309875
0.0309834
0.0309799
0.0309768
0.0309739
0.0309707
0.0309669
0.0309622
0.0309567
0.0309505
0.030944
0.0309378
0.0309327
0.0309294
0.0309285
0.0309303
0.0309347
0.0309412
0.0309492
0.0309576
0.0309656
0.030973
0.0309798
0.0309863
0.0309932
0.0310013
0.031011
0.0310227
0.0310363
0.0310521
0.0310702
0.0310908
0.0311139
0.0311394
0.0311668
0.0311949
0.0312224
0.0312476
0.0312689
0.0312849
0.0312946
0.0312971
0.0312921
0.0312798
0.0312606
0.0312358
0.0312068
0.0311752
0.0311428
0.0311112
0.0310814
0.0310544
0.0310309
0.0310112
0.0309955
0.0309836
0.0309753
0.0309699
0.0309664
0.0309639
0.0309613
0.0309577
0.0309523
0.0309448
0.0309352
0.0309241
0.0309123
0.030901
0.0308916
0.030885
0.0308822
0.0308835
0.0308888
0.0308975
0.0309082
0.0309197
0.0309302
0.0309385
0.0309433
0.0309436
0.0309392
0.0309304
0.0309304
0.04
0.0245855
0.0253073
0.0257863
0.0259896
0.0260341
0.0262041
0.0266402
0.0269522
0.0263533
0.0260846
0.0265367
0.0266883
0.0261702
0.0259522
0.0261548
0.0261177
0.0257919
0.0256637
0.0256828
0.0255488
0.0253469
0.0252587
0.0251876
0.0250369
0.0249054
0.0248326
0.024747
0.024643
0.0245853
0.0245586
0.0245264
0.0245054
0.0245184
0.0245361
0.0245468
0.0245659
0.0245947
0.0246145
0.02463
0.0246513
0.0246734
0.0246896
0.0247083
0.0247314
0.0247535
0.0247747
0.0247999
0.0248266
0.0248527
0.0248808
0.0249113
0.0249424
0.0249751
0.0250108
0.0250469
0.0250858
0.0251267
0.0251703
0.0252135
0.0252629
0.0253115
0.0253656
0.025419
0.0254832
0.0255425
0.0256163
0.0256849
0.0257723
0.0258472
0.0259507
0.0260335
0.0261515
0.0262394
0.0263753
0.026463
0.0266138
0.0267031
0.0268676
0.0269497
0.0271293
0.0272081
0.027394
0.0274652
0.0276628
0.0277271
0.0279232
0.0279841
0.0281833
0.0282368
0.0284272
0.0284808
0.0286628
0.0287093
0.0288751
0.02892
0.0290668
0.0291028
0.0292255
0.0292545
0.0293516
0.0293662
0.0294344
0.0294376
0.0294765
0.0294601
0.0294727
0.0294425
0.029425
0.0293771
0.0293412
0.0292763
0.0292158
0.0291412
0.0290661
0.0289741
0.0288856
0.0287888
0.0286866
0.0285784
0.0284725
0.0283601
0.0282451
0.028131
0.0280187
0.0279056
0.0277977
0.0276988
0.0276112
0.027539
0.0274911
0.0274745
0.027496
0.0275634
0.0276849
0.0278653
0.0281049
0.0284012
0.0287485
0.0291344
0.0295409
0.0299484
0.0303356
0.0306779
0.0309525
0.0311442
0.0312459
0.0312598
0.0312027
0.031104
0.0309954
0.030902
0.0308381
0.0308023
0.0307795
0.0307539
0.0307201
0.0306845
0.0306607
0.0306632
0.030698
0.030758
0.0308276
0.0308929
0.0309458
0.0309834
0.0310061
0.0310155
0.0310131
0.031001
0.0309847
0.0309716
0.030966
0.0309677
0.0309739
0.0309811
0.0309867
0.0309893
0.0309883
0.0309829
0.0309727
0.0309583
0.0309411
0.0309216
0.0309
0.030876
0.0308496
0.0308216
0.0307942
0.0307697
0.0307502
0.0307369
0.0307305
0.0307312
0.0307392
0.0307539
0.0307749
0.030801
0.0308308
0.0308629
0.0308955
0.030927
0.0309559
0.030981
0.0310016
0.0310175
0.0310285
0.0310346
0.0310358
0.0310321
0.031024
0.031012
0.0309969
0.0309799
0.0309625
0.0309462
0.0309322
0.0309217
0.0309153
0.0309129
0.0309142
0.0309184
0.0309244
0.0309315
0.0309388
0.0309457
0.0309518
0.0309567
0.0309602
0.030962
0.0309624
0.0309617
0.0309604
0.030959
0.0309582
0.0309583
0.0309594
0.0309613
0.0309637
0.0309661
0.0309679
0.0309686
0.0309678
0.0309654
0.0309613
0.0309559
0.0309497
0.0309432
0.0309367
0.0309309
0.0309258
0.0309216
0.0309185
0.0309164
0.0309153
0.0309153
0.0309162
0.0309178
0.0309199
0.0309224
0.0309251
0.0309278
0.0309305
0.0309332
0.0309357
0.030938
0.0309403
0.0309425
0.0309447
0.030947
0.0309495
0.0309523
0.0309557
0.03096
0.0309655
0.0309725
0.0309814
0.0309926
0.0310064
0.031023
0.0310425
0.0310646
0.031089
0.0311149
0.0311416
0.0311681
0.0311934
0.0312166
0.0312372
0.0312546
0.0312688
0.03128
0.0312885
0.0312949
0.0312999
0.0313045
0.0313094
0.0313158
0.0313246
0.0313365
0.0313523
0.0313722
0.031396
0.0314231
0.0314523
0.0314824
0.0315116
0.0315385
0.0315616
0.03158
0.0315933
0.0316015
0.0316051
0.031605
0.0316024
0.0315982
0.0315935
0.0315888
0.0315844
0.0315805
0.0315766
0.0315725
0.0315678
0.0315621
0.0315553
0.0315475
0.0315393
0.031531
0.0315235
0.0315174
0.0315134
0.031512
0.0315134
0.0315174
0.0315234
0.0315306
0.0315381
0.0315452
0.0315514
0.0315568
0.0315617
0.0315667
0.0315724
0.0315791
0.0315873
0.0315973
0.0316093
0.0316237
0.031641
0.0316612
0.0316841
0.031709
0.0317347
0.0317594
0.0317814
0.0317991
0.0318111
0.0318162
0.031814
0.0318044
0.0317876
0.0317646
0.0317366
0.0317052
0.0316722
0.031639
0.031607
0.0315771
0.0315498
0.0315257
0.0315048
0.0314872
0.0314727
0.031461
0.0314515
0.0314436
0.0314363
0.031429
0.0314208
0.0314113
0.0314001
0.0313875
0.031374
0.0313605
0.031348
0.0313378
0.0313307
0.0313275
0.0313284
0.0313331
0.0313409
0.0313507
0.031361
0.0313702
0.0313772
0.0313808
0.0313802
0.0313752
0.0313663
0.0313663
0.04
0.0252488
0.0257888
0.0254653
0.0258192
0.026199
0.0263633
0.0263748
0.0263127
0.026408
0.0268165
0.0267436
0.0263938
0.0264361
0.0267289
0.026611
0.0263303
0.0263307
0.0264257
0.0262876
0.0261108
0.02608
0.0260446
0.0259022
0.0257807
0.0257207
0.0256291
0.0255084
0.0254288
0.025378
0.025313
0.0252633
0.0252517
0.0252514
0.0252472
0.0252607
0.0252881
0.0253103
0.0253288
0.0253558
0.0253824
0.0254027
0.0254241
0.0254501
0.0254732
0.0254951
0.0255205
0.0255473
0.0255723
0.0255994
0.025629
0.0256583
0.0256889
0.0257225
0.0257568
0.0257921
0.0258308
0.0258706
0.0259112
0.0259545
0.0260014
0.0260475
0.0260987
0.0261525
0.0262115
0.0262703
0.026341
0.0264098
0.0264914
0.0265692
0.0266673
0.0267518
0.0268652
0.0269568
0.0270857
0.0271783
0.0273257
0.027417
0.0275772
0.0276663
0.0278438
0.0279227
0.0281114
0.028188
0.0283861
0.0284497
0.0286564
0.0287189
0.0289229
0.0289761
0.0291822
0.0292339
0.0294252
0.0294721
0.0296552
0.0296968
0.0298555
0.0298934