# vtk DataFile Version 3.0
LBM output step 640
ASCII
DATASET STRUCTURED_POINTS
DIMENSIONS 400 100 1
ORIGIN 0 0 0
SPACING 1 1 1
POINT_DATA 40000
SCALARS velocity_magnitude double 1
LOOKUP_TABLE default
0
0
0
0
0
0
0
0
0
0
0
0
0
0
0
0
0
0
0
0
0
0
0
0
0
0
0
0
0
0
0
0
0
0
0
0
0
0
0
0
0
0
0
0
0
0
0
0
0
0
0
0
0
0
0
0
0
0
0
0
0
0
0
0
0
0
0
0
0
0
0
0
0
0
0
0
0
0
0
0
0
0
0
0
0
0
0
0
0
0
0
0
0
0
0
0
0
0
0
0
0
0
0
0
0
0
0
0
0
0
0
0
0
0
0
0
0
0
0
0
0
0
0
0
0
0
0
0
0
0
0
0
0
0
0
0
0
0
0
0
0
0
0
0
0
0
0
0
0
0
0
0
0
0
0
0
0
0
0
0
0
0
0
0
0
0
0
0
0
0
0
0
0
0
0
0
0
0
0
0
0
0
0
0
0
0
0
0
0
0
0
0
0
0
0
0
0
0
0
0
0
0
0
0
0
0
0
0
0
0
0
0
0
0
0
0
0
0
0
0
0
0
0
0
0
0
0
0
0
0
0
0
0
0
0
0
0
0
0
0
0
0
0
0
0
0
0
0
0
0
0
0
0
0
0
0
0
0
0
0
0
0
0
0
0
0
0
0
0
0
0
0
0
0
0
0
0
0
0
0
0
0
0
0
0
0
0
0
0
0
0
0
0
0
0
0
0
0
0
0
0
0
0
0
0
0
0
0
0
0
0
0
0
0
0
0
0
0
0
0
0
0
0
0
0
0
0
0
0
0
0
0
0
0
0
0
0
0
0
0
0
0
0
0
0
0
0
0
0
0
0
0
0
0
0
0
0
0
0
0
0
0
0
0
0
0
0
0
0
0
0
0
0
0
0
0
0
0
0
0
0
0
0
0
0
0
0
0
0
0
0
0
0
0
0
0
0
0
0
0
0.04
0.0139538
0.00858531
0.0138674
0.0161993
0.0157821
0.0129249
0.0125006
0.0125887
0.0126549
0.0123215
0.0123299
0.0120695
0.0119064
0.0117899
0.0117934
0.0116335
0.0115227
0.0114137
0.0113171
0.0111485
0.011023
0.0108923
0.0107674
0.010635
0.0105407
0.0104467
0.0103521
0.0102665
0.0101867
0.0101114
0.0100216
0.00995621
0.00987136
0.00981179
0.00972369
0.00967752
0.00959429
0.00955629
0.00948177
0.0094591
0.00939684
0.00938369
0.00933413
0.0093245
0.00927739
0.00925772
0.00920184
0.00915852
0.00908162
0.00900877
0.00891064
0.00881587
0.00870908
0.00861012
0.00851121
0.00842366
0.00834238
0.00827289
0.00821212
0.00816126
0.00811844
0.00808381
0.00805503
0.00803097
0.00801134
0.00799522
0.0079818
0.00797204
0.00796649
0.00796426
0.00796579
0.00797223
0.00798263
0.00799645
0.00801492
0.00803848
0.00806557
0.00809693
0.00813358
0.00817447
0.00821746
0.00826301
0.00830954
0.00835368
0.00839262
0.00842618
0.00845223
0.00846921
0.00847747
0.00847996
0.00847701
0.00846961
0.00845995
0.00845009
0.00843878
0.00842648
0.00841332
0.00839924
0.00838335
0.00836675
0.00835007
0.00833403
0.008319
0.00830671
0.00829653
0.00828819
0.00828179
0.00827657
0.00827027
0.00826282
0.00825349
0.00824109
0.00822502
0.00820654
0.00818649
0.00816627
0.00814812
0.00813444
0.00812493
0.00811916
0.00811688
0.00811615
0.00811421
0.00811071
0.0081053
0.00809698
0.00808693
0.00807847
0.00807296
0.00807092
0.00807423
0.00808307
0.00809394
0.00810455
0.00811487
0.00812387
0.00813165
0.00814261
0.00816066
0.00818571
0.00821748
0.00825621
0.00829862
0.00833948
0.00837516
0.00840146
0.00841241
0.00840515
0.00838192
0.00834618
0.00830079
0.00824912
0.00819383
0.00813589
0.00807748
0.0080238
0.00797978
0.00794675
0.00792315
0.007906
0.00789183
0.00787907
0.00786984
0.00786711
0.00787087
0.00787836
0.00788665
0.007895
0.00790693
0.00793058
0.0079745
0.00804141
0.00812542
0.00821404
0.00829309
0.00835323
0.00839544
0.00843158
0.0084793
0.00855467
0.00866577
0.00880885
0.00896837
0.00912133
0.00924371
0.00931626
0.00932862
0.00928086
0.00918209
0.00904711
0.00889255
0.00873387
0.00858321
0.0084486
0.00833428
0.00824154
0.00816967
0.00811669
0.00808009
0.0080572
0.0080453
0.00804181
0.0080444
0.0080511
0.00806023
0.00807054
0.00808111
0.00809125
0.00810054
0.00810876
0.00811596
0.00812251
0.00812918
0.0081372
0.00814815
0.0081639
0.0081863
0.00821698
0.00825701
0.00830684
0.00836625
0.00843447
0.00851035
0.00859259
0.00867995
0.00877143
0.00886644
0.00896484
0.0090669
0.0091731
0.00928381
0.00939901
0.00951793
0.00963894
0.00975959
0.00987688
0.00998772
0.0100894
0.0101799
0.0102581
0.0103236
0.0103766
0.0104173
0.0104464
0.0104653
0.010476
0.0104815
0.010485
0.0104892
0.0104962
0.0105072
0.0105223
0.0105403
0.0105594
0.0105767
0.0105889
0.0105929
0.0105872
0.0105717
0.0105484
0.0105203
0.0104899
0.0104589
0.0104279
0.0103971
0.0103674
0.0103403
0.0103182
0.0103034
0.010297
0.0102987
0.0103074
0.0103213
0.0103393
0.010361
0.0103867
0.0104167
0.0104516
0.0104916
0.0105371
0.0105893
0.0106501
0.0107221
0.0108082
0.0109105
0.0110296
0.0111645
0.0113121
0.0114683
0.0116282
0.0117864
0.011937
0.0120741
0.0121922
0.0122874
0.0123577
0.0124049
0.0124345
0.0124553
0.0124771
0.0125076
0.0125503
0.0126043
0.0126646
0.0127241
0.0127765
0.0128178
0.0128485
0.0128733
0.0129008
0.0129414
0.013004
0.0130934
0.0132092
0.0133459
0.0134935
0.0136361
0.0137534
0.0138239
0.0138314
0.0137688
0.0136379
0.0134489
0.0132192
0.0129737
0.0127405
0.0125434
0.0123972
0.0123093
0.0122838
0.0123218
0.0124188
0.0125631
0.0127428
0.0129527
0.013195
0.0134699
0.0137664
0.0140669
0.0143638
0.0146659
0.014984
0.015309
0.0156099
0.0158593
0.016063
0.0162617
0.0164945
0.0167547
0.016982
0.0171123
0.0171505
0.017196
0.0173838
0.0177696
0.018245
0.0185719
0.0185501
0.0182132
0.0178767
0.0179638
0.0187094
0.0199281
0.0210141
0.0212613
0.0203726
0.018758
0.0173199
0.0168737
0.0176105
0.0188886
0.019505
0.0184341
0.015559
0.0117044
0.00795242
0.0049818
0.00293786
0.00165851
0.000906876
0.000483937
0.000253175
0.000130202
6.59296e-05
3.29039e-05
1.61972e-05
7.86934e-06
3.77612e-06
1.79117e-06
8.40795e-07
3.91141e-07
1.80658e-07
8.30253e-08
3.80696e-08
1.74787e-08
8.02388e-09
3.55024e-09
1.61419e-09
1.61419e-09
0.04
0.0225598
0.0237592
0.021148
0.0144453
0.0141386
0.017319
0.0179927
0.0164828
0.0160194
0.0162405
0.0161617
0.0159069
0.015955
0.0159149
0.0157818
0.0157494
0.0158262
0.0157799
0.0156926
0.0156435
0.0155908
0.0154744
0.0153754
0.0153065
0.0152297
0.0151467
0.0150873
0.0150471
0.0149871
0.0149474
0.0149021
0.0148853
0.0148303
0.0148278
0.0147821
0.0147964
0.0147471
0.0147831
0.0147443
0.0147959
0.0147662
0.0148345
0.0148157
0.0148853
0.0148707
0.0149303
0.014908
0.0149405
0.0149023
0.0149027
0.0148477
0.0148222
0.0147621
0.0147276
0.0146756
0.0146461
0.0146125
0.0145972
0.0145832
0.0145847
0.0145909
0.0146065
0.0146261
0.0146532
0.0146824
0.0147149
0.0147519
0.0147934
0.014837
0.0148855
0.0149399
0.0149974
0.0150579
0.0151249
0.0151969
0.0152712
0.0153505
0.0154367
0.0155255
0.0156159
0.0157105
0.0158071
0.0158995
0.0159879
0.0160722
0.0161477
0.0162109
0.0162644
0.0163091
0.0163438
0.0163696
0.016391
0.0164084
0.0164214
0.0164309
0.0164382
0.0164418
0.0164415
0.0164374
0.01643
0.0164198
0.016408
0.0163944
0.0163801
0.016366
0.0163513
0.0163346
0.0163176
0.0162981
0.0162738
0.0162466
0.0162169
0.0161811
0.0161419
0.0161031
0.0160631
0.0160228
0.0159881
0.0159581
0.015929
0.0159028
0.0158807
0.0158571
0.015831
0.0158057
0.0157801
0.0157522
0.0157263
0.0157059
0.0156896
0.0156774
0.0156715
0.0156702
0.0156688
0.0156668
0.0156659
0.0156658
0.0156675
0.0156755
0.0156923
0.0157155
0.0157435
0.0157754
0.0158072
0.0158324
0.0158472
0.0158488
0.0158337
0.0158019
0.015758
0.0157064
0.0156488
0.0155875
0.0155259
0.0154669
0.0154139
0.0153716
0.0153428
0.0153252
0.0153148
0.0153088
0.0153063
0.0153079
0.0153158
0.015331
0.0153512
0.0153729
0.0153955
0.0154229
0.0154621
0.0155203
0.0156001
0.0156965
0.0157971
0.0158883
0.0159617
0.0160179
0.0160672
0.0161262
0.0162097
0.0163249
0.016467
0.0166209
0.0167641
0.0168733
0.0169302
0.0169258
0.0168615
0.0167472
0.0165987
0.0164332
0.0162663
0.0161101
0.0159725
0.0158575
0.015766
0.0156973
0.0156492
0.0156192
0.0156045
0.0156023
0.0156097
0.0156242
0.0156434
0.0156654
0.0156886
0.0157119
0.0157349
0.0157572
0.0157792
0.0158015
0.0158248
0.0158503
0.0158794
0.0159134
0.015954
0.0160023
0.0160592
0.0161252
0.0162003
0.0162837
0.0163746
0.0164718
0.0165741
0.0166805
0.0167904
0.0169034
0.0170195
0.0171391
0.0172625
0.01739
0.0175212
0.0176552
0.0177902
0.0179239
0.0180535
0.0181761
0.0182894
0.0183915
0.0184813
0.0185582
0.0186221
0.0186732
0.0187121
0.0187401
0.0187591
0.0187717
0.0187806
0.0187886
0.0187979
0.0188097
0.0188241
0.0188403
0.0188564
0.0188697
0.0188773
0.0188766
0.0188664
0.0188473
0.0188214
0.0187918
0.018761
0.0187307
0.0187017
0.0186744
0.0186496
0.0186292
0.0186156
0.0186108
0.0186158
0.0186302
0.0186525
0.0186811
0.0187147
0.018753
0.0187959
0.0188439
0.0188974
0.0189566
0.0190222
0.0190953
0.0191776
0.0192714
0.019379
0.0195021
0.019641
0.0197947
0.0199602
0.0201333
0.0203083
0.0204784
0.0206369
0.0207772
0.0208941
0.0209848
0.0210493
0.021091
0.0211163
0.0211336
0.0211513
0.0211757
0.0212093
0.0212512
0.0212974
0.0213426
0.0213821
0.0214135
0.0214375
0.0214582
0.0214823
0.0215181
0.0215725
0.0216486
0.0217447
0.0218548
0.0219693
0.022074
0.0221508
0.0221813
0.0221521
0.0220576
0.0219006
0.0216907
0.0214448
0.0211866
0.0209426
0.0207355
0.0205792
0.0204814
0.020447
0.0204778
0.0205692
0.0207092
0.0208846
0.0210891
0.0213229
0.0215849
0.0218644
0.022145
0.0224181
0.0226894
0.0229671
0.0232427
0.0234879
0.0236768
0.023814
0.0239375
0.0240855
0.024252
0.0243782
0.0244008
0.0243243
0.0242471
0.0243016
0.0245388
0.0248487
0.0249975
0.0247935
0.0242732
0.0237449
0.0236207
0.0241268
0.0250729
0.0258519
0.0257644
0.0245304
0.0225801
0.020819
0.020043
0.0204227
0.0213155
0.0215297
0.0200483
0.0167666
0.0125383
0.00848191
0.00529393
0.0031115
0.00175102
0.000954513
0.000507733
0.000264693
0.000135573
6.83117e-05
3.38832e-05
1.65473e-05
7.95548e-06
3.76367e-06
1.75062e-06
7.99356e-07
3.57333e-07
1.55602e-07
6.53685e-08
2.59405e-08
9.20785e-09
2.5381e-09
4.05807e-10
3.56378e-10
3.56378e-10
0.04
0.0237997
0.021679
0.0185017
0.0197063
0.0218015
0.0207863
0.0192356
0.0195599
0.0201493
0.0196705
0.0191832
0.0191916
0.0192227
0.0190377
0.0190128
0.0190858
0.0190929
0.0190641
0.0191206
0.0191439
0.0191043
0.0190641
0.019058
0.019024
0.01898
0.0189599
0.0189504
0.0189321
0.0189118
0.0189185
0.0189074
0.0189156
0.0189016
0.0189369
0.0189203
0.0189709
0.0189579
0.0190369
0.0190221
0.0191223
0.0191133
0.0192297
0.01922
0.0193412
0.0193309
0.0194401
0.0194207
0.0195055
0.0194744
0.0195285
0.0194888
0.0195183
0.0194805
0.0194976
0.019471
0.0194877
0.0194804
0.0195046
0.0195179
0.0195557
0.019589
0.0196371
0.019685
0.0197422
0.0197978
0.0198599
0.0199246
0.0199932
0.0200641
0.0201413
0.0202215
0.0203042
0.0203917
0.0204846
0.0205802
0.0206805
0.0207877
0.0208993
0.0210133
0.021132
0.0212543
0.0213752
0.0214934
0.0216101
0.0217202
0.0218195
0.021909
0.0219898
0.0220583
0.0221156
0.0221653
0.0222091
0.0222456
0.0222766
0.022304
0.0223277
0.0223455
0.0223583
0.0223671
0.0223714
0.0223699
0.0223654
0.0223583
0.022347
0.0223323
0.0223167
0.0222965
0.022271
0.0222431
0.022211
0.0221716
0.0221284
0.0220829
0.0220321
0.0219777
0.0219247
0.0218717
0.0218174
0.021766
0.021718
0.0216689
0.0216202
0.0215739
0.0215271
0.0214784
0.021431
0.0213854
0.0213401
0.0212972
0.0212603
0.0212283
0.0211997
0.021176
0.0211563
0.0211374
0.0211191
0.021104
0.0210928
0.0210856
0.0210849
0.0210918
0.0211038
0.021118
0.0211327
0.0211442
0.0211469
0.0211373
0.0211145
0.0210781
0.0210291
0.0209716
0.0209092
0.0208435
0.0207768
0.0207133
0.0206573
0.0206116
0.0205779
0.0205558
0.0205414
0.0205311
0.0205237
0.0205207
0.0205235
0.0205325
0.0205467
0.0205636
0.0205817
0.0206035
0.0206355
0.020684
0.0207517
0.020835
0.0209242
0.0210071
0.021075
0.0211274
0.0211728
0.0212249
0.0212975
0.0213982
0.0215243
0.0216624
0.0217925
0.0218932
0.0219468
0.0219438
0.0218846
0.0217778
0.0216377
0.0214802
0.02132
0.0211687
0.0210336
0.0209189
0.0208258
0.0207537
0.0207009
0.0206653
0.0206445
0.020636
0.0206372
0.0206456
0.0206589
0.020675
0.0206922
0.0207095
0.0207264
0.020743
0.02076
0.0207782
0.020799
0.0208235
0.0208528
0.020888
0.0209296
0.0209778
0.0210326
0.0210936
0.02116
0.0212313
0.0213067
0.0213857
0.0214678
0.021553
0.0216414
0.0217332
0.0218289
0.0219286
0.0220326
0.0221406
0.0222522
0.0223661
0.0224808
0.0225944
0.0227049
0.0228101
0.0229085
0.0229986
0.0230794
0.0231499
0.0232095
0.0232581
0.0232957
0.0233233
0.0233419
0.0233533
0.0233597
0.0233632
0.0233658
0.0233686
0.0233718
0.023375
0.0233766
0.0233746
0.0233668
0.0233514
0.0233277
0.023296
0.0232581
0.0232161
0.0231721
0.0231272
0.0230823
0.0230381
0.022996
0.0229582
0.0229273
0.0229053
0.0228929
0.0228895
0.0228936
0.0229033
0.0229174
0.0229352
0.0229567
0.0229822
0.0230123
0.0230474
0.0230882
0.023136
0.0231921
0.0232581
0.023336
0.023427
0.0235322
0.0236513
0.0237825
0.023922
0.0240639
0.024201
0.0243257
0.0244313
0.0245133
0.0245702
0.0246037
0.0246176
0.0246176
0.0246096
0.0245986
0.024588
0.0245796
0.0245735
0.0245689
0.0245645
0.0245595
0.0245536
0.0245476
0.0245432
0.0245434
0.0245518
0.0245713
0.0246025
0.0246427
0.024687
0.0247282
0.0247568
0.0247606
0.0247272
0.0246478
0.0245184
0.02434
0.0241175
0.0238619
0.0235907
0.0233247
0.0230828
0.0228783
0.02272
0.0226152
0.0225686
0.0225783
0.0226343
0.0227247
0.022843
0.022989
0.0231615
0.0233514
0.0235446
0.0237318
0.0239148
0.0240999
0.024283
0.0244421
0.0245522
0.0246124
0.0246543
0.0247146
0.024792
0.0248354
0.0247861
0.0246442
0.024497
0.0244666
0.0246034
0.0248102
0.0248772
0.0246296
0.0240928
0.0235382
0.0233441
0.0237357
0.0245559
0.0252453
0.0251425
0.0239705
0.0221133
0.0204068
0.0196083
0.0199161
0.0207669
0.0210359
0.0197021
0.0165924
0.0124922
0.00849952
0.00532939
0.00314393
0.00177487
0.000970423
0.000517815
0.000270898
0.000139325
7.05555e-05
3.52166e-05
1.73375e-05
8.42402e-06
4.04239e-06
1.91736e-06
8.99885e-07
4.18504e-07
1.93199e-07
8.87196e-08
4.06451e-08
1.8656e-08
8.54782e-09
3.72334e-09
1.6516e-09
1.6516e-09
0.04
0.0256721
0.026901
0.0266892
0.0262202
0.0235149
0.0219842
0.0229669
0.0235903
0.0224555
0.0216506
0.0219285
0.0219972
0.0215798
0.0213701
0.0214835
0.0214402
0.0213559
0.0214128
0.0215185
0.021512
0.0215316
0.0215986
0.0216378
0.0216286
0.0216561
0.0216979
0.0217156
0.0217297
0.0217651
0.0218045
0.0218206
0.0218597
0.0218884
0.021942
0.0219553
0.0220324
0.0220518
0.0221498
0.0221604
0.0222872
0.022292
0.0224313
0.0224261
0.0225738
0.0225554
0.0226926
0.022662
0.0227782
0.0227358
0.0228256
0.0227801
0.0228464
0.0228072
0.0228573
0.0228313
0.0228747
0.0228677
0.0229115
0.0229273
0.0229798
0.0230157
0.023076
0.0231286
0.0231939
0.0232547
0.0233259
0.0233959
0.0234717
0.0235509
0.0236357
0.0237214
0.023812
0.0239073
0.0240058
0.0241082
0.0242186
0.0243344
0.0244537
0.0245789
0.0247099
0.0248409
0.0249715
0.0251031
0.0252311
0.0253501
0.0254617
0.0255656
0.0256575
0.0257364
0.0258069
0.0258695
0.0259227
0.0259685
0.0260106
0.0260476
0.0260789
0.0261054
0.0261276
0.0261442
0.0261561
0.0261627
0.0261639
0.0261607
0.0261537
0.0261403
0.0261219
0.0260998
0.0260709
0.0260349
0.0259953
0.0259499
0.0258972
0.025842
0.0257846
0.0257216
0.0256569
0.025593
0.0255263
0.0254571
0.0253898
0.0253222
0.0252519
0.0251825
0.0251159
0.0250489
0.0249818
0.0249175
0.0248554
0.0247939
0.0247355
0.0246825
0.0246341
0.024589
0.0245486
0.024513
0.02448
0.0244489
0.0244223
0.0244007
0.0243825
0.0243687
0.0243602
0.0243542
0.024347
0.0243373
0.0243225
0.0242977
0.0242604
0.0242116
0.0241523
0.0240832
0.024008
0.0239309
0.0238541
0.0237799
0.0237134
0.0236582
0.0236148
0.0235821
0.0235581
0.0235394
0.0235232
0.0235104
0.0235033
0.0235027
0.0235075
0.0235163
0.023528
0.0235431
0.0235658
0.0236021
0.0236552
0.0237229
0.023798
0.0238709
0.0239328
0.0239814
0.0240225
0.0240674
0.0241282
0.0242123
0.0243187
0.0244366
0.0245482
0.0246334
0.0246755
0.0246647
0.0246001
0.0244894
0.0243456
0.0241836
0.0240177
0.023859
0.0237151
0.02359
0.0234852
0.0234005
0.0233343
0.0232848
0.0232498
0.023227
0.0232139
0.0232083
0.0232078
0.0232102
0.0232138
0.0232175
0.0232207
0.0232238
0.0232277
0.0232338
0.0232437
0.0232588
0.0232801
0.0233081
0.0233428
0.0233834
0.0234289
0.0234781
0.0235297
0.023583
0.0236371
0.0236922
0.0237485
0.0238067
0.0238677
0.0239325
0.0240017
0.0240755
0.0241539
0.0242364
0.024322
0.0244097
0.0244981
0.0245859
0.0246718
0.0247547
0.0248335
0.0249075
0.0249754
0.0250363
0.0250893
0.0251336
0.0251688
0.0251949
0.0252122
0.0252214
0.0252238
0.0252209
0.0252142
0.0252047
0.0251926
0.0251775
0.0251585
0.0251344
0.0251039
0.0250663
0.0250211
0.024969
0.0249109
0.0248485
0.0247829
0.0247153
0.0246466
0.024578
0.0245116
0.02445
0.0243959
0.0243512
0.0243164
0.0242907
0.0242725
0.02426
0.0242519
0.0242474
0.0242463
0.0242488
0.0242554
0.024267
0.0242845
0.0243092
0.0243422
0.0243847
0.0244379
0.0245031
0.0245815
0.0246736
0.0247786
0.0248928
0.0250103
0.0251232
0.0252232
0.0253036
0.0253604
0.0253934
0.0254055
0.0254013
0.0253855
0.0253616
0.0253313
0.0252957
0.0252557
0.0252127
0.0251694
0.0251287
0.0250936
0.0250665
0.0250479
0.025037
0.0250322
0.0250319
0.0250349
0.0250388
0.0250401
0.0250345
0.0250179
0.0249852
0.0249308
0.0248496
0.0247384
0.0245963
0.0244228
0.0242178
0.0239853
0.0237349
0.0234817
0.0232413
0.0230266
0.0228484
0.0227163
0.022637
0.0226101
0.0226279
0.0226819
0.0227683
0.022888
0.0230382
0.0232074
0.0233789
0.0235424
0.023702
0.0238695
0.0240459
0.0242086
0.0243249
0.0243834
0.0244127
0.0244591
0.0245376
0.0246046
0.0245914
0.024477
0.0243316
0.0242779
0.0243868
0.0245909
0.0246985
0.0245235
0.0240526
0.0235179
0.0232886
0.0236212
0.0244079
0.0251224
0.0250965
0.0240124
0.022209
0.0205011
0.0196605
0.0199318
0.0207997
0.0211472
0.0199074
0.0168481
0.0127338
0.00868547
0.00545264
0.00321746
0.00181564
0.000991839
0.000528554
0.000276028
0.000141626
7.14913e-05
3.55278e-05
1.73855e-05
8.37661e-06
3.97236e-06
1.85267e-06
8.48636e-07
3.8086e-07
1.66726e-07
7.05828e-08
2.83749e-08
1.03766e-08
3.12151e-09
7.67151e-10
4.2286e-10
4.2286e-10
0.04
0.0263947
0.0275108
0.0261138
0.0252731
0.0252913
0.0262104
0.0254459
0.0239642
0.0238213
0.0244567
0.0241298
0.0233723
0.0232558
0.0233824
0.0231765
0.0229257
0.0229648
0.0230126
0.0229773
0.0230054
0.0231291
0.0231885
0.0232227
0.0232979
0.023384
0.0234238
0.0234702
0.0235407
0.0236008
0.0236449
0.0236975
0.0237651
0.0238082
0.0238686
0.0239142
0.024
0.0240329
0.0241376
0.0241684
0.0242957
0.0243042
0.0244491
0.0244404
0.02459
0.0245577
0.0247046
0.0246541
0.024784
0.0247234
0.0248343
0.0247732
0.0248634
0.0248116
0.0248829
0.024846
0.024905
0.0248876
0.0249426
0.02495
0.0250074
0.0250363
0.0250994
0.0251447
0.0252098
0.0252671
0.0253372
0.0254033
0.0254795
0.0255566
0.0256385
0.0257223
0.025812
0.0259035
0.0259996
0.0261027
0.026212
0.0263255
0.0264466
0.0265741
0.0267037
0.0268347
0.0269694
0.0271027
0.0272299
0.0273525
0.0274703
0.0275766
0.0276706
0.0277564
0.0278334
0.0278985
0.0279556
0.0280078
0.0280545
0.0280944
0.0281297
0.0281615
0.0281889
0.0282098
0.0282256
0.0282376
0.0282437
0.028242
0.0282362
0.0282247
0.0282041
0.0281771
0.028146
0.0281056
0.0280574
0.0280066
0.0279507
0.0278871
0.0278223
0.0277567
0.0276849
0.0276092
0.0275342
0.0274551
0.0273704
0.027286
0.0272022
0.0271159
0.0270305
0.0269495
0.0268699
0.0267901
0.0267128
0.0266382
0.0265643
0.0264925
0.0264264
0.0263657
0.0263091
0.0262582
0.0262138
0.0261731
0.0261342
0.0260985
0.0260665
0.0260361
0.0260072
0.0259809
0.0259548
0.0259249
0.0258903
0.0258503
0.0258014
0.0257415
0.0256722
0.025595
0.025511
0.0254238
0.0253384
0.0252582
0.0251851
0.0251222
0.0250713
0.0250309
0.0249981
0.024971
0.0249482
0.0249286
0.0249134
0.0249043
0.0249014
0.024903
0.0249081
0.0249178
0.0249342
0.0249607
0.0250004
0.025053
0.0251129
0.0251725
0.0252252
0.0252681
0.0253045
0.0253429
0.0253936
0.0254631
0.0255507
0.025648
0.0257396
0.0258075
0.0258358
0.025815
0.0257438
0.0256282
0.02548
0.0253136
0.0251425
0.0249777
0.0248268
0.0246942
0.0245814
0.0244881
0.0244129
0.0243538
0.0243085
0.024275
0.024251
0.0242344
0.0242231
0.024215
0.0242085
0.0242024
0.0241962
0.02419
0.024185
0.0241825
0.024184
0.0241912
0.024205
0.0242256
0.0242527
0.024285
0.0243211
0.0243592
0.0243978
0.0244357
0.0244725
0.0245082
0.0245436
0.0245799
0.0246185
0.0246605
0.0247069
0.024758
0.0248135
0.0248728
0.024935
0.0249989
0.0250635
0.0251279
0.0251918
0.0252548
0.0253169
0.0253776
0.0254363
0.0254917
0.0255427
0.0255882
0.0256272
0.0256589
0.0256826
0.0256981
0.0257054
0.0257053
0.0256984
0.0256855
0.0256667
0.0256418
0.0256103
0.025572
0.0255269
0.025475
0.0254169
0.0253528
0.0252834
0.0252092
0.0251311
0.0250501
0.0249675
0.0248852
0.0248059
0.0247325
0.0246675
0.0246125
0.0245676
0.0245317
0.0245035
0.0244813
0.0244642
0.0244513
0.0244422
0.0244368
0.0244351
0.0244377
0.0244458
0.0244609
0.0244845
0.0245178
0.0245619
0.0246176
0.024686
0.0247673
0.0248609
0.0249637
0.0250699
0.0251722
0.0252625
0.0253344
0.0253843
0.0254124
0.0254219
0.0254172
0.0254018
0.0253772
0.0253431
0.0252991
0.0252461
0.0251874
0.0251282
0.0250746
0.0250324
0.0250055
0.0249944
0.0249963
0.025006
0.0250171
0.0250239
0.0250205
0.0250021
0.0249654
0.0249094
0.0248353
0.0247446
0.0246389
0.0245199
0.0243882
0.0242426
0.0240802
0.0238997
0.0237042
0.0235009
0.0232984
0.0231058
0.0229338
0.0227957
0.022704
0.0226637
0.0226699
0.0227125
0.0227848
0.0228869
0.0230199
0.0231777
0.0233464
0.0235123
0.0236718
0.0238319
0.0239968
0.0241534
0.0242756
0.0243507
0.0243976
0.0244531
0.0245301
0.0245935
0.0245864
0.0244921
0.0243714
0.02433
0.0244276
0.0246032
0.0246881
0.0245197
0.0240889
0.0236049
0.0234
0.0237028
0.0244084
0.0250289
0.0249519
0.023892
0.0221691
0.0205414
0.0197303
0.019973
0.0207915
0.0211168
0.0198977
0.0168778
0.0127899
0.00874496
0.00550105
0.00325152
0.00183773
0.00100554
0.000536856
0.000280994
0.000144579
7.32421e-05
3.65664e-05
1.80032e-05
8.74589e-06
4.19464e-06
1.98759e-06
9.31322e-07
4.3204e-07
1.98721e-07
9.07892e-08
4.12906e-08
1.87482e-08
8.46839e-09
3.64432e-09
1.60788e-09
1.60788e-09
0.04
0.0243479
0.0249302
0.0260099
0.0267198
0.0265375
0.0260958
0.025365
0.0256263
0.0259254
0.0253478
0.0246534
0.0247588
0.0248895
0.0244831
0.0241032
0.0241063
0.0241084
0.023939
0.0238949
0.0240006
0.024069
0.0240923
0.0241907
0.0243037
0.0243665
0.0244228
0.0245156
0.0245939
0.0246487
0.0247156
0.0247934
0.0248577
0.0249087
0.024983
0.0250417
0.0251199
0.0251661
0.0252722
0.025307
0.0254239
0.0254355
0.0255713
0.0255506
0.0256908
0.0256435
0.0257838
0.0257121
0.025845
0.0257654
0.0258851
0.0258085
0.0259125
0.0258465
0.0259313
0.0258823
0.0259504
0.0259218
0.0259828
0.0259784
0.0260366
0.026056
0.0261166
0.0261521
0.026215
0.0262659
0.026332
0.0263938
0.026468
0.0265398
0.0266183
0.0266988
0.0267837
0.02687
0.0269638
0.0270631
0.0271676
0.0272793
0.0273995
0.0275226
0.0276488
0.0277803
0.0279127
0.0280411
0.0281684
0.0282935
0.0284097
0.0285152
0.0286141
0.0287038
0.0287806
0.0288476
0.0289095
0.0289636
0.0290098
0.0290516
0.0290905
0.0291234
0.0291517
0.0291763
0.0291955
0.0292083
0.0292166
0.0292176
0.02921
0.0291964
0.0291759
0.0291445
0.0291063
0.0290633
0.0290114
0.0289526
0.0288925
0.0288274
0.0287565
0.028685
0.0286111
0.0285299
0.0284449
0.0283577
0.0282648
0.0281676
0.0280714
0.0279756
0.0278797
0.0277871
0.0276989
0.0276115
0.0275243
0.027439
0.0273554
0.0272731
0.0271941
0.0271217
0.0270566
0.0269979
0.0269459
0.0269004
0.0268577
0.0268144
0.0267717
0.0267302
0.0266879
0.0266444
0.0266013
0.026557
0.0265086
0.0264558
0.0263987
0.0263339
0.0262592
0.0261767
0.0260893
0.0259991
0.0259101
0.025827
0.0257523
0.0256862
0.0256299
0.0255841
0.0255466
0.0255143
0.0254864
0.0254626
0.0254426
0.0254279
0.0254201
0.0254188
0.0254222
0.0254297
0.0254427
0.025463
0.0254926
0.0255329
0.0255816
0.025633
0.0256812
0.0257229
0.0257592
0.0257953
0.0258393
0.0258975
0.0259704
0.0260515
0.0261281
0.0261844
0.0262053
0.026181
0.0261088
0.0259937
0.0258459
0.0256788
0.0255058
0.0253382
0.025184
0.025048
0.024932
0.0248356
0.0247573
0.0246948
0.0246458
0.0246078
0.0245789
0.0245573
0.0245412
0.0245289
0.0245188
0.0245099
0.0245013
0.0244931
0.0244858
0.0244805
0.0244786
0.0244814
0.0244899
0.0245042
0.0245241
0.0245483
0.0245755
0.0246039
0.024632
0.0246587
0.0246835
0.0247066
0.0247288
0.0247515
0.0247762
0.024804
0.0248357
0.0248716
0.0249114
0.0249542
0.0249991
0.0250452
0.025092
0.0251391
0.0251869
0.0252359
0.0252867
0.0253395
0.025394
0.0254493
0.0255042
0.0255571
0.0256066
0.0256511
0.0256892
0.0257196
0.0257415
0.0257543
0.025758
0.0257524
0.0257371
0.0257121
0.0256776
0.0256344
0.0255838
0.0255272
0.0254651
0.025398
0.0253255
0.0252477
0.0251649
0.0250782
0.0249894
0.0249012
0.0248168
0.0247393
0.0246711
0.0246135
0.0245663
0.0245284
0.0244984
0.0244748
0.0244567
0.0244434
0.0244341
0.0244284
0.0244262
0.0244279
0.0244346
0.0244478
0.0244694
0.0245008
0.0245431
0.0245972
0.0246635
0.0247419
0.0248313
0.0249287
0.0250291
0.0251262
0.0252133
0.0252851
0.0253383
0.0253727
0.0253902
0.0253937
0.0253849
0.0253639
0.0253295
0.0252813
0.0252213
0.0251544
0.0250882
0.0250313
0.0249911
0.0249723
0.0249748
0.0249933
0.025019
0.0250414
0.0250512
0.0250409
0.025005
0.0249412
0.0248511
0.0247401
0.0246164
0.0244887
0.0243642
0.0242467
0.0241345
0.0240209
0.0238972
0.0237585
0.0236051
0.0234415
0.0232747
0.0231142
0.0229736
0.0228674
0.0228048
0.0227855
0.0228031
0.0228527
0.0229352
0.0230515
0.0231941
0.0233464
0.0234933
0.0236338
0.0237805
0.0239414
0.0241022
0.0242306
0.0243056
0.024343
0.0243854
0.0244588
0.024538
0.0245621
0.024495
0.0243751
0.0243015
0.0243529
0.024503
0.0246074
0.0244969
0.0241267
0.0236646
0.0234238
0.0236472
0.0242728
0.0248616
0.0248219
0.0238419
0.0221868
0.0205758
0.0197372
0.0199514
0.0207843
0.0211745
0.0200357
0.0170648
0.0129756
0.0088936
0.00560316
0.00331457
0.00187392
0.00102525
0.000547144
0.000286155
0.00014705
7.43531e-05
3.7017e-05
1.81503e-05
8.76452e-06
4.16683e-06
1.94916e-06
8.96101e-07
4.04063e-07
1.7803e-07
7.61008e-08
3.10966e-08
1.17519e-08
3.84831e-09
1.12235e-09
5.10767e-10
5.10767e-10
0.04
0.024386
0.0251279
0.025491
0.0256587
0.0256648
0.0257934
0.0261588
0.0263802
0.0257034
0.0253861
0.0257741
0.0258325
0.0252304
0.0249435
0.0250731
0.0249578
0.0246055
0.0245091
0.0246051
0.0245828
0.024543
0.0246439
0.0247677
0.0248105
0.0248713
0.0249805
0.0250621
0.0251104
0.0251877
0.0252776
0.0253408
0.0253995
0.0254737
0.025551
0.0256038
0.025684
0.025745
0.0258405
0.0258723
0.025984
0.0259934
0.0261103
0.0260788
0.0262073
0.0261427
0.0262694
0.0261822
0.0263112
0.0262154
0.0263384
0.0262509
0.0263612
0.0262856
0.0263786
0.0263204
0.026395
0.0263596
0.0264233
0.0264106
0.0264697
0.0264807
0.0265375
0.0265669
0.0266278
0.0266727
0.0267376
0.0267978
0.0268696
0.0269387
0.0270167
0.027094
0.0271754
0.0272606
0.0273524
0.0274478
0.0275515
0.0276633
0.0277795
0.0278995
0.0280263
0.0281551
0.0282819
0.0284093
0.0285381
0.0286601
0.0287743
0.0288843
0.0289869
0.0290755
0.0291545
0.0292273
0.0292911
0.0293445
0.0293931
0.0294379
0.0294776
0.0295114
0.0295413
0.0295677
0.0295896
0.0296031
0.0296105
0.0296128
0.0296054
0.0295871
0.0295634
0.0295309
0.0294867
0.0294373
0.0293843
0.0293213
0.0292534
0.0291867
0.0291147
0.0290355
0.0289566
0.0288744
0.0287823
0.0286858
0.0285892
0.0284868
0.0283807
0.0282781
0.0281787
0.0280793
0.0279832
0.0278915
0.0278003
0.0277079
0.0276174
0.0275304
0.0274463
0.0273673
0.0272978
0.0272382
0.0271854
0.027138
0.0270947
0.027051
0.0270033
0.0269532
0.0269023
0.0268489
0.0267924
0.0267353
0.0266779
0.0266177
0.0265539
0.0264866
0.0264127
0.02633
0.0262421
0.0261539
0.026068
0.0259867
0.0259132
0.0258483
0.0257908
0.025741
0.0257
0.0256662
0.0256366
0.0256109
0.0255899
0.0255738
0.0255637
0.0255614
0.0255664
0.0255763
0.0255901
0.0256092
0.0256346
0.0256674
0.025708
0.0257542
0.0258013
0.0258455
0.0258865
0.0259269
0.0259716
0.0260252
0.0260891
0.0261585
0.0262229
0.0262689
0.0262832
0.0262562
0.0261845
0.0260717
0.0259271
0.0257629
0.0255921
0.0254264
0.0252741
0.02514
0.0250264
0.0249327
0.024857
0.0247966
0.024749
0.0247118
0.024683
0.0246611
0.0246449
0.0246332
0.0246247
0.0246182
0.0246128
0.0246077
0.0246028
0.0245984
0.0245955
0.0245949
0.0245976
0.0246041
0.0246145
0.0246284
0.024645
0.0246632
0.024682
0.0247004
0.0247179
0.0247344
0.0247504
0.0247667
0.0247845
0.0248047
0.0248279
0.0248542
0.0248831
0.0249141
0.0249462
0.0249788
0.0250118
0.0250454
0.0250807
0.0251188
0.0251609
0.0252076
0.0252592
0.0253149
0.0253737
0.0254343
0.0254949
0.0255536
0.0256082
0.0256567
0.0256971
0.0257278
0.0257473
0.0257545
0.0257485
0.0257292
0.0256973
0.0256547
0.0256037
0.0255464
0.0254838
0.0254159
0.0253423
0.0252624
0.0251764
0.0250859
0.0249931
0.0249015
0.0248145
0.0247352
0.0246659
0.0246075
0.0245596
0.0245212
0.024491
0.0244678
0.0244509
0.0244392
0.0244319
0.0244281
0.024427
0.0244288
0.0244348
0.0244471
0.0244681
0.0244998
0.0245432
0.0245986
0.0246653
0.0247421
0.0248273
0.0249184
0.0250118
0.0251032
0.025188
0.0252619
0.0253212
0.0253641
0.0253902
0.0253999
0.0253935
0.0253707
0.0253315
0.0252772
0.0252116
0.0251413
0.0250747
0.0250205
0.0249858
0.0249747
0.0249862
0.0250141
0.0250472
0.0250727
0.025079
0.0250573
0.025002
0.0249117
0.0247903
0.0246471
0.0244952
0.0243481
0.0242169
0.0241082
0.0240216
0.0239491
0.0238781
0.0237961
0.0236959
0.0235762
0.0234403
0.023296
0.0231567
0.0230391
0.0229567
0.0229137
0.022906
0.0229302
0.0229883
0.0230829
0.0232073
0.0233434
0.0234742
0.0235985
0.0237317
0.0238848
0.0240443
0.0241754
0.0242533
0.0242908
0.0243308
0.0244044
0.0244941
0.0245408
0.0244983
0.0243886
0.0243014
0.0243242
0.0244532
0.0245635
0.0244881
0.0241654
0.0237382
0.0234975
0.0236766
0.024225
0.0247397
0.0246707
0.023722
0.0221347
0.0205866
0.0197802
0.019998
0.0208253
0.0212193
0.0200959
0.0171389
0.0130493
0.00895363
0.00564525
0.00334137
0.0018901
0.00103479
0.000552737
0.000289435
0.000148983
7.54993e-05
3.7702e-05
1.85631e-05
9.01575e-06
4.32137e-06
2.04527e-06
9.56538e-07
4.42461e-07
2.02654e-07
9.20226e-08
4.14895e-08
1.86085e-08
8.27009e-09
3.50232e-09
1.51239e-09
1.51239e-09
0.04
0.0249621
0.0254909
0.0251277
0.0254464
0.0257859
0.0259272
0.0258829
0.0257589
0.0258049
0.0261571
0.0260047
0.0255752
0.0255377
0.0257214
0.0254797
0.0250955
0.025031
0.0250832
0.0249484
0.0248349
0.0249162
0.0250123
0.0250229
0.0250698
0.0251806
0.0252538
0.0252941
0.0253686
0.0254585
0.0255181
0.0255753
0.0256547
0.0257276
0.0257902
0.0258539
0.0259435
0.0260002
0.0260875
0.0261268
0.0262309
0.026229
0.0263341
0.0262962
0.0264074
0.0263264
0.0264431
0.0263427
0.0264624
0.0263569
0.0264804
0.0263844
0.0264977
0.0264187
0.0265161
0.0264545
0.0265355
0.0264976
0.0265635
0.0265483
0.0266076
0.0266122
0.0266673
0.0266937
0.0267518
0.0267942
0.0268604
0.0269199
0.0269915
0.027062
0.0271404
0.0272168
0.0272993
0.0273849
0.0274753
0.0275713
0.0276764
0.027786
0.0279007
0.0280225
0.0281474
0.0282708
0.0283973