# vtk DataFile Version 3.0
LBM output step 1600
ASCII
DATASET STRUCTURED_POINTS
DIMENSIONS 400 100 1
ORIGIN 0 0 0
SPACING 1 1 1
POINT_DATA 40000
SCALARS velocity_magnitude double 1
LOOKUP_TABLE default
0
0
0
0
0
0
0
0
0
0
0
0
0
0
0
0
0
0
0
0
0
0
0
0
0
0
0
0
0
0
0
0
0
0
0
0
0
0
0
0
0
0
0
0
0
0
0
0
0
0
0
0
0
0
0
0
0
0
0
0
0
0
0
0
0
0
0
0
0
0
0
0
0
0
0
0
0
0
0
0
0
0
0
0
0
0
0
0
0
0
0
0
0
0
0
0
0
0
0
0
0
0
0
0
0
0
0
0
0
0
0
0
0
0
0
0
0
0
0
0
0
0
0
0
0
0
0
0
0
0
0
0
0
0
0
0
0
0
0
0
0
0
0
0
0
0
0
0
0
0
0
0
0
0
0
0
0
0
0
0
0
0
0
0
0
0
0
0
0
0
0
0
0
0
0
0
0
0
0
0
0
0
0
0
0
0
0
0
0
0
0
0
0
0
0
0
0
0
0
0
0
0
0
0
0
0
0
0
0
0
0
0
0
0
0
0
0
0
0
0
0
0
0
0
0
0
0
0
0
0
0
0
0
0
0
0
0
0
0
0
0
0
0
0
0
0
0
0
0
0
0
0
0
0
0
0
0
0
0
0
0
0
0
0
0
0
0
0
0
0
0
0
0
0
0
0
0
0
0
0
0
0
0
0
0
0
0
0
0
0
0
0
0
0
0
0
0
0
0
0
0
0
0
0
0
0
0
0
0
0
0
0
0
0
0
0
0
0
0
0
0
0
0
0
0
0
0
0
0
0
0
0
0
0
0
0
0
0
0
0
0
0
0
0
0
0
0
0
0
0
0
0
0
0
0
0
0
0
0
0
0
0
0
0
0
0
0
0
0
0
0
0
0
0
0
0
0
0
0
0
0
0
0
0
0
0
0
0
0
0
0
0
0
0
0
0
0
0
0
0
0.04
0.0176563
0.011582
0.0144427
0.0176001
0.0175862
0.0142425
0.0130159
0.0128789
0.0129373
0.012557
0.0124776
0.0121541
0.0119226
0.0117522
0.0117227
0.011534
0.0113851
0.0112569
0.0111684
0.0110214
0.0109207
0.0108199
0.0107254
0.0106131
0.0105358
0.0104526
0.0103731
0.0102921
0.0102309
0.0101622
0.0100982
0.0100357
0.00998117
0.00991958
0.0098618
0.00980404
0.00974808
0.00968725
0.00962948
0.00957066
0.00951192
0.00945071
0.00939175
0.00933157
0.0092716
0.00921114
0.00915299
0.00909497
0.00903872
0.00898423
0.00893308
0.00888378
0.00883742
0.00879376
0.00875301
0.00871364
0.0086761
0.00864018
0.00860554
0.00857168
0.00853938
0.00850897
0.00847969
0.00845223
0.0084268
0.00840388
0.00838242
0.00836446
0.00834858
0.00833548
0.00832269
0.00831207
0.00829891
0.00828556
0.00826868
0.00825241
0.00823159
0.00821327
0.00819235
0.00817483
0.00815309
0.00813705
0.00811752
0.00810375
0.00808623
0.00807831
0.00806581
0.00806043
0.00804713
0.00804031
0.00802043
0.00800437
0.0079754
0.00795491
0.00792323
0.00790455
0.00787821
0.00786729
0.00784478
0.00783413
0.00780568
0.00778311
0.00773602
0.00769297
0.00762445
0.0075622
0.00747847
0.00740738
0.00731998
0.0072509
0.00717085
0.00711272
0.00704631
0.00700368
0.00695426
0.00692761
0.00689452
0.0068822
0.00686204
0.00685882
0.00684675
0.0068471
0.00683672
0.00683525
0.00682311
0.00681633
0.0067995
0.00678697
0.00676571
0.00674687
0.00672166
0.00669881
0.00667079
0.00664471
0.00661625
0.00658972
0.00656175
0.0065364
0.00651163
0.00648915
0.006468
0.00644998
0.00643381
0.00641978
0.00640762
0.0063973
0.00638759
0.00637826
0.00636913
0.00635957
0.00634906
0.00633788
0.00632626
0.00631402
0.00630155
0.00628966
0.00627868
0.00626868
0.0062602
0.00625364
0.00624873
0.0062452
0.00624313
0.0062423
0.00624214
0.00624242
0.00624319
0.00624425
0.00624537
0.00624666
0.00624834
0.00625035
0.00625269
0.00625551
0.00625885
0.00626256
0.00626657
0.00627087
0.00627534
0.00627984
0.00628432
0.00628873
0.00629294
0.00629685
0.00630039
0.00630347
0.006306
0.00630794
0.00630933
0.00631025
0.00631085
0.00631141
0.00631235
0.00631412
0.00631727
0.00632236
0.00632986
0.0063401
0.00635319
0.006369
0.00638718
0.00640717
0.00642826
0.00644973
0.00647081
0.0064908
0.00650909
0.00652514
0.00653852
0.00654893
0.0065562
0.00656029
0.00656132
0.00655954
0.00655534
0.00654914
0.00654141
0.00653264
0.00652321
0.00651346
0.00650361
0.00649379
0.00648403
0.00647426
0.00646436
0.00645419
0.0064436
0.00643248
0.00642081
0.00640867
0.00639623
0.00638382
0.00637185
0.00636082
0.00635124
0.00634364
0.00633845
0.00633599
0.00633642
0.00633969
0.00634552
0.00635342
0.0063627
0.00637253
0.00638207
0.00639048
0.00639709
0.00640147
0.00640347
0.00640324
0.00640123
0.00639809
0.00639463
0.00639164
0.00638979
0.00638954
0.00639104
0.00639414
0.0063984
0.00640317
0.00640776
0.0064115
0.00641387
0.00641456
0.00641348
0.00641075
0.00640661
0.00640136
0.00639526
0.00638845
0.00638089
0.0063724
0.00636264
0.00635117
0.00633756
0.00632142
0.00630248
0.00628066
0.0062561
0.00622919
0.00620052
0.00617085
0.00614108
0.00611218
0.0060852
0.00606121
0.00604123
0.00602609
0.00601629
0.00601191
0.00601265
0.00601793
0.00602712
0.00603974
0.00605553
0.0060744
0.00609634
0.00612129
0.00614906
0.00617931
0.00621161
0.0062454
0.00627994
0.00631423
0.00634695
0.00637661
0.0064018
0.00642152
0.00643553
0.00644439
0.00644927
0.00645139
0.00645149
0.00644938
0.00644386
0.00643308
0.00641529
0.0063895
0.00635612
0.00631698
0.00627499
0.00623338
0.00619481
0.00616074
0.00613109
0.00610437
0.0060782
0.00605003
0.00601784
0.00598068
0.0059389
0.00589407
0.00584871
0.00580584
0.00576846
0.00573923
0.00572012
0.00571235
0.0057163
0.00573165
0.00575748
0.00579243
0.00583483
0.00588287
0.00593472
0.00598859
0.00604285
0.00609606
0.00614701
0.00619474
0.00623851
0.00627782
0.0063124
0.00634211
0.00636704
0.00638736
0.00640342
0.00641569
0.00642473
0.00643123
0.00643598
0.00643979
0.00644349
0.00644785
0.00645351
0.00646094
0.00647037
0.00648178
0.00649491
0.00650928
0.00652422
0.006539
0.00655284
0.00656501
0.00657493
0.00658217
0.00658649
0.00658791
0.00658659
0.00658291
0.00657737
0.00657057
0.0065631
0.00655555
0.00654844
0.00654216
0.00653694
0.00653289
0.00652997
0.00652807
0.00652697
0.00652653
0.00652649
0.00652665
0.00652707
0.00652813
0.00652859
0.00652813
0.00652813
0.04
0.0276245
0.0300792
0.0276226
0.0199356
0.018056
0.0209004
0.0217786
0.0200166
0.0189765
0.0188643
0.0186629
0.0182603
0.0181068
0.0178781
0.0175493
0.0173065
0.0172027
0.0170087
0.0167893
0.0166299
0.0165062
0.0163377
0.0161906
0.0160757
0.015961
0.0158322
0.0157307
0.0156421
0.0155494
0.0154586
0.0153868
0.0153171
0.0152462
0.0151819
0.0151273
0.0150713
0.0150167
0.0149678
0.0149222
0.0148748
0.0148293
0.0147864
0.0147433
0.0146988
0.0146558
0.014614
0.0145722
0.0145314
0.0144936
0.0144586
0.0144262
0.0143978
0.014374
0.0143543
0.0143383
0.0143263
0.0143183
0.0143134
0.0143113
0.0143132
0.0143183
0.0143268
0.0143387
0.0143552
0.0143747
0.0143987
0.0144267
0.0144598
0.0144956
0.0145372
0.0145804
0.0146261
0.0146706
0.014718
0.0147607
0.0148045
0.0148453
0.0148903
0.014929
0.0149728
0.0150132
0.0150593
0.0150969
0.0151438
0.0151854
0.0152354
0.015275
0.015326
0.015364
0.0154076
0.0154313
0.0154636
0.0154745
0.0154946
0.0154951
0.0155128
0.015511
0.0155269
0.0155198
0.0155282
0.0155044
0.0154913
0.015439
0.0153965
0.0153132
0.0152437
0.0151366
0.0150519
0.0149342
0.0148451
0.0147285
0.0146465
0.0145371
0.0144653
0.0143694
0.0143097
0.0142242
0.0141762
0.014102
0.014059
0.0139903
0.013951
0.0138836
0.0138405
0.013773
0.0137265
0.0136559
0.0136045
0.0135343
0.0134795
0.0134089
0.0133532
0.0132859
0.0132303
0.0131671
0.0131153
0.0130585
0.013011
0.0129621
0.0129218
0.0128813
0.012848
0.0128167
0.0127912
0.0127672
0.0127475
0.0127294
0.0127135
0.0126978
0.0126833
0.0126687
0.012654
0.012639
0.0126243
0.0126097
0.0125956
0.0125826
0.0125712
0.0125613
0.012553
0.0125469
0.0125426
0.0125396
0.0125379
0.0125374
0.0125376
0.0125381
0.0125391
0.0125406
0.0125423
0.0125444
0.0125471
0.0125505
0.0125544
0.0125591
0.0125645
0.0125705
0.0125771
0.0125842
0.0125917
0.0125995
0.0126074
0.0126154
0.0126234
0.012631
0.0126382
0.012645
0.0126512
0.0126568
0.0126618
0.0126666
0.0126714
0.0126766
0.0126826
0.0126901
0.0126996
0.0127114
0.0127259
0.0127431
0.0127629
0.0127847
0.0128079
0.012832
0.0128559
0.012879
0.0129005
0.0129197
0.012936
0.0129491
0.0129587
0.0129646
0.0129668
0.0129656
0.0129611
0.0129539
0.0129445
0.0129334
0.0129211
0.0129082
0.0128951
0.012882
0.0128691
0.0128565
0.0128441
0.0128317
0.0128194
0.0128067
0.0127938
0.0127804
0.0127668
0.0127531
0.0127397
0.012727
0.0127156
0.0127061
0.0126989
0.0126944
0.0126931
0.0126948
0.0126995
0.0127068
0.0127162
0.0127267
0.0127377
0.0127481
0.0127571
0.0127642
0.0127689
0.012771
0.0127708
0.0127687
0.0127653
0.0127613
0.0127576
0.0127547
0.0127532
0.0127531
0.0127543
0.0127565
0.0127591
0.0127615
0.012763
0.0127631
0.0127616
0.0127583
0.0127532
0.0127466
0.0127385
0.0127292
0.0127188
0.0127072
0.0126945
0.0126803
0.0126644
0.0126465
0.0126263
0.0126039
0.0125791
0.0125523
0.0125239
0.0124943
0.0124645
0.0124351
0.0124072
0.0123817
0.0123598
0.0123422
0.0123297
0.0123229
0.0123217
0.0123258
0.0123346
0.0123476
0.0123641
0.0123839
0.0124068
0.0124327
0.0124615
0.0124928
0.0125263
0.0125613
0.0125973
0.0126334
0.0126684
0.012701
0.0127298
0.0127533
0.0127708
0.0127821
0.0127877
0.012789
0.0127871
0.0127827
0.0127758
0.0127653
0.0127495
0.012727
0.012697
0.01266
0.012618
0.012574
0.0125309
0.0124915
0.0124571
0.0124274
0.012401
0.0123756
0.0123488
0.0123187
0.0122846
0.0122471
0.0122079
0.0121696
0.0121354
0.0121083
0.0120908
0.0120848
0.0120913
0.0121104
0.0121414
0.0121832
0.0122341
0.0122922
0.0123553
0.0124215
0.0124887
0.0125553
0.0126196
0.0126805
0.012737
0.0127884
0.0128342
0.0128743
0.0129087
0.0129374
0.0129609
0.0129796
0.0129942
0.0130052
0.0130136
0.0130202
0.013026
0.0130317
0.0130381
0.013046
0.0130557
0.0130675
0.0130812
0.0130965
0.013113
0.0131298
0.0131463
0.0131617
0.0131752
0.0131862
0.0131943
0.0131994
0.0132015
0.0132007
0.0131976
0.0131925
0.0131861
0.0131791
0.0131721
0.0131655
0.0131597
0.0131551
0.0131517
0.0131494
0.0131481
0.0131476
0.0131475
0.0131476
0.013148
0.0131481
0.0131475
0.0131468
0.0131461
0.0131461
0.04
0.0278802
0.0265072
0.0240022
0.0251173
0.0271396
0.0262309
0.024334
0.0242635
0.0247345
0.0241867
0.0234233
0.0231412
0.0229864
0.0226093
0.0223127
0.0221075
0.021864
0.021584
0.0214027
0.0212293
0.0210241
0.0208301
0.0206903
0.0205397
0.020385
0.0202521
0.0201424
0.0200235
0.0199146
0.0198231
0.0197398
0.0196539
0.0195809
0.0195182
0.0194588
0.019402
0.0193562
0.0193156
0.0192771
0.0192427
0.0192145
0.0191873
0.0191609
0.0191368
0.0191149
0.0190925
0.0190714
0.0190528
0.0190367
0.0190227
0.0190126
0.0190073
0.0190066
0.0190103
0.0190191
0.0190331
0.0190515
0.0190738
0.0191009
0.0191329
0.0191687
0.019209
0.0192547
0.0193053
0.0193597
0.0194201
0.0194857
0.0195565
0.0196316
0.0197134
0.0197974
0.019885
0.0199733
0.0200642
0.0201515
0.0202417
0.0203296
0.0204203
0.020507
0.0206005
0.0206896
0.0207832
0.0208717
0.0209695
0.0210592
0.0211564
0.0212458
0.0213446
0.021427
0.021515
0.0215843
0.0216595
0.02171
0.0217695
0.0218076
0.02186
0.0218884
0.0219339
0.0219523
0.0219847
0.0219795
0.0219856
0.0219473
0.0219185
0.0218419
0.0217819
0.021675
0.0215918
0.021467
0.0213754
0.0212427
0.0211507
0.0210207
0.0209342
0.0208081
0.0207307
0.0206118
0.0205402
0.0204268
0.0203607
0.0202488
0.0201823
0.0200712
0.0200018
0.0198877
0.0198145
0.0196997
0.019622
0.0195074
0.0194281
0.0193164
0.0192364
0.0191302
0.0190529
0.0189543
0.0188813
0.0187932
0.0187271
0.0186502
0.0185924
0.0185282
0.0184797
0.0184274
0.018388
0.0183467
0.0183146
0.0182813
0.0182546
0.0182267
0.0182026
0.0181776
0.0181553
0.0181321
0.0181108
0.0180898
0.0180708
0.0180527
0.018037
0.0180234
0.0180121
0.0180028
0.0179958
0.0179907
0.017987
0.0179843
0.0179827
0.0179818
0.0179813
0.0179812
0.0179816
0.0179825
0.017984
0.0179863
0.0179894
0.0179933
0.017998
0.0180036
0.0180099
0.0180169
0.0180243
0.0180321
0.0180402
0.0180482
0.0180562
0.0180639
0.0180711
0.0180778
0.0180839
0.0180895
0.0180945
0.0180993
0.0181042
0.0181095
0.0181158
0.0181234
0.0181329
0.0181445
0.0181586
0.0181752
0.0181942
0.0182151
0.0182375
0.0182608
0.018284
0.0183067
0.0183279
0.018347
0.0183635
0.018377
0.0183872
0.0183939
0.0183971
0.0183969
0.0183937
0.0183878
0.0183797
0.0183698
0.0183587
0.0183469
0.0183347
0.0183224
0.0183102
0.0182982
0.0182864
0.0182748
0.0182631
0.0182513
0.0182393
0.0182269
0.0182144
0.0182019
0.0181898
0.0181784
0.0181684
0.0181602
0.0181543
0.0181512
0.0181509
0.0181536
0.018159
0.0181667
0.0181762
0.0181867
0.0181975
0.0182078
0.0182169
0.0182242
0.0182294
0.0182323
0.0182332
0.0182322
0.0182299
0.0182269
0.0182237
0.018221
0.018219
0.0182182
0.0182184
0.0182196
0.0182215
0.0182235
0.0182253
0.0182265
0.0182266
0.0182255
0.0182228
0.0182186
0.0182127
0.0182052
0.0181961
0.0181852
0.0181727
0.0181584
0.0181423
0.0181245
0.0181049
0.0180836
0.0180607
0.0180365
0.0180112
0.0179853
0.0179593
0.0179339
0.0179097
0.0178876
0.0178686
0.0178532
0.0178424
0.0178364
0.0178354
0.0178391
0.0178472
0.0178591
0.0178745
0.0178932
0.0179149
0.0179397
0.0179674
0.0179978
0.0180307
0.0180653
0.0181013
0.0181376
0.0181731
0.0182067
0.0182369
0.0182623
0.0182821
0.0182962
0.018305
0.0183095
0.0183108
0.0183095
0.0183055
0.0182979
0.0182853
0.0182663
0.0182403
0.0182079
0.0181707
0.0181314
0.0180929
0.0180576
0.0180269
0.0180008
0.0179779
0.0179563
0.0179336
0.0179081
0.0178791
0.0178467
0.0178127
0.0177794
0.0177496
0.0177263
0.0177119
0.0177082
0.0177162
0.0177363
0.0177679
0.0178099
0.0178608
0.0179187
0.0179818
0.018048
0.0181155
0.0181825
0.0182476
0.0183096
0.0183673
0.0184202
0.0184676
0.0185094
0.0185454
0.0185757
0.0186008
0.0186209
0.0186367
0.0186489
0.0186583
0.0186658
0.0186722
0.0186786
0.0186855
0.0186938
0.0187038
0.0187157
0.0187296
0.0187451
0.0187617
0.0187789
0.0187958
0.0188118
0.0188262
0.0188383
0.0188477
0.0188543
0.0188579
0.0188587
0.0188571
0.0188536
0.0188486
0.0188428
0.0188368
0.0188311
0.018826
0.0188219
0.0188189
0.0188169
0.0188157
0.0188154
0.0188155
0.0188157
0.0188161
0.0188165
0.0188165
0.0188163
0.0188158
0.0188158
0.04
0.0295865
0.0309345
0.0312985
0.0313886
0.0289966
0.0273496
0.0282653
0.0290904
0.0279606
0.0268885
0.0269603
0.027
0.0264595
0.0259999
0.0258756
0.0256433
0.025307
0.0250767
0.0249189
0.0246734
0.024448
0.0242907
0.0241356
0.0239426
0.023791
0.0236682
0.023537
0.0234016
0.0232997
0.0232048
0.0231065
0.0230175
0.0229489
0.0228803
0.0228154
0.0227626
0.0227215
0.0226811
0.0226483
0.0226252
0.0226078
0.0225913
0.0225809
0.0225747
0.0225697
0.0225652
0.0225644
0.0225654
0.022568
0.0225732
0.0225829
0.0225964
0.0226142
0.0226368
0.0226651
0.0226983
0.0227359
0.0227784
0.0228266
0.0228793
0.0229364
0.0229993
0.0230678
0.0231408
0.0232188
0.0233035
0.0233932
0.0234883
0.0235891
0.023696
0.0238058
0.0239202
0.0240358
0.0241533
0.0242697
0.0243888
0.0245052
0.0246245
0.0247433
0.0248667
0.024986
0.0251114
0.0252349
0.0253635
0.0254856
0.0256166
0.0257412
0.0258701
0.0259858
0.0261076
0.0262119
0.0263175
0.0264023
0.026495
0.0265666
0.0266475
0.0267077
0.0267814
0.0268279
0.0268848
0.0269065
0.0269354
0.0269205
0.0269128
0.0268573
0.0268145
0.0267253
0.0266569
0.0265439
0.0264632
0.0263387
0.0262529
0.0261249
0.0260428
0.0259132
0.0258352
0.0257085
0.0256342
0.0255055
0.0254342
0.0253039
0.0252291
0.0250938
0.025016
0.0248748
0.0247907
0.0246461
0.0245581
0.0244114
0.0243205
0.0241764
0.024085
0.0239457
0.0238562
0.0237261
0.0236411
0.0235222
0.023444
0.0233393
0.0232694
0.0231792
0.023119
0.0230436
0.0229922
0.0229298
0.0228865
0.0228347
0.0227965
0.0227525
0.0227183
0.0226792
0.022647
0.0226123
0.0225824
0.0225511
0.0225244
0.0224982
0.0224757
0.0224546
0.0224376
0.0224225
0.0224101
0.0223997
0.0223916
0.0223847
0.022379
0.0223742
0.0223704
0.022367
0.0223642
0.0223623
0.0223612
0.022361
0.0223618
0.0223639
0.0223672
0.0223715
0.0223768
0.0223831
0.0223902
0.0223977
0.0224057
0.0224138
0.0224218
0.0224295
0.0224369
0.0224436
0.0224497
0.0224553
0.0224606
0.0224656
0.0224709
0.0224769
0.0224839
0.0224923
0.0225026
0.022515
0.0225297
0.0225468
0.0225661
0.0225874
0.0226102
0.0226338
0.0226577
0.022681
0.0227031
0.0227233
0.0227411
0.0227559
0.0227675
0.0227757
0.0227804
0.0227819
0.0227803
0.022776
0.0227693
0.0227608
0.0227508
0.0227399
0.0227284
0.0227167
0.022705
0.0226934
0.022682
0.0226708
0.0226596
0.0226484
0.0226371
0.0226257
0.0226142
0.0226028
0.0225919
0.0225819
0.0225734
0.0225668
0.0225626
0.0225611
0.0225625
0.0225667
0.0225735
0.0225825
0.022593
0.0226043
0.0226159
0.0226269
0.0226368
0.0226451
0.0226515
0.0226559
0.0226583
0.0226589
0.0226582
0.0226564
0.0226541
0.0226518
0.0226498
0.0226484
0.0226479
0.0226484
0.0226498
0.0226519
0.0226545
0.0226571
0.0226593
0.0226607
0.0226609
0.0226594
0.0226559
0.0226501
0.0226418
0.0226311
0.0226181
0.0226028
0.0225856
0.0225667
0.0225466
0.0225256
0.0225038
0.0224816
0.0224591
0.0224367
0.0224146
0.0223932
0.0223731
0.0223548
0.022339
0.0223264
0.0223176
0.0223127
0.0223122
0.0223158
0.0223234
0.0223347
0.0223494
0.0223674
0.0223885
0.0224128
0.0224402
0.0224706
0.0225036
0.0225387
0.0225754
0.0226127
0.0226494
0.0226843
0.022716
0.0227432
0.0227653
0.0227818
0.022793
0.0227998
0.0228028
0.0228026
0.0227992
0.0227919
0.0227795
0.022761
0.0227358
0.0227045
0.0226685
0.0226303
0.0225923
0.022557
0.0225256
0.0224983
0.0224741
0.0224513
0.0224277
0.0224019
0.022373
0.0223413
0.0223082
0.0222759
0.0222472
0.0222246
0.0222107
0.0222073
0.0222154
0.0222354
0.0222668
0.0223086
0.0223593
0.0224172
0.0224805
0.0225471
0.0226152
0.022683
0.0227492
0.0228124
0.0228715
0.0229258
0.0229746
0.0230178
0.023055
0.0230865
0.0231125
0.0231333
0.0231497
0.0231623
0.0231719
0.0231796
0.0231862
0.0231925
0.0231995
0.0232078
0.0232177
0.0232296
0.0232433
0.0232587
0.0232752
0.0232924
0.0233095
0.0233258
0.0233406
0.0233532
0.0233634
0.0233707
0.023375
0.0233766
0.0233757
0.0233726
0.023368
0.0233624
0.0233564
0.0233505
0.0233451
0.0233404
0.0233368
0.0233342
0.0233324
0.0233314
0.0233311
0.0233311
0.0233311
0.0233311
0.0233311
0.0233312
0.0233309
0.0233309
0.04
0.0307722
0.0318658
0.0305157
0.0298899
0.0302375
0.0314744
0.0309383
0.0294477
0.0292317
0.0299509
0.029707
0.0288534
0.0285712
0.0286478
0.0283902
0.0279788
0.0277931
0.027649
0.0273944
0.0271606
0.0270199
0.0268431
0.0266417
0.0264867
0.0263647
0.0262126
0.0260713
0.0259623
0.0258604
0.0257464
0.025652
0.0255733
0.0254943
0.0254159
0.0253556
0.0253023
0.0252515
0.025209
0.025181
0.0251577
0.02514
0.0251315
0.0251313
0.0251331
0.0251393
0.0251505
0.0251646
0.0251793
0.0251975
0.025219
0.0252434
0.0252707
0.0253029
0.0253397
0.0253811
0.0254268
0.0254777
0.0255338
0.0255948
0.0256601
0.0257312
0.0258082
0.0258895
0.025976
0.026069
0.0261674
0.0262704
0.02638
0.0264956
0.0266161
0.0267406
0.0268699
0.0270007
0.0271336
0.0272668
0.0274012
0.0275348
0.0276719
0.0278087
0.0279481
0.028088
0.0282341
0.0283774
0.0285247
0.0286716
0.0288247
0.0289703
0.0291198
0.0292625
0.0294066
0.0295345
0.0296637
0.0297781
0.0298946
0.0299931
0.0300988
0.0301881
0.030285
0.0303585
0.0304382
0.030488
0.0305392
0.030551
0.030566
0.0305386
0.0305169
0.0304532
0.0304067
0.0303177
0.0302538
0.0301513
0.0300828
0.0299702
0.0299011
0.0297865
0.0297179
0.0295978
0.0295323
0.0294071
0.0293386
0.0292057
0.0291344
0.0289902
0.0289119
0.0287584
0.0286735
0.0285106
0.0284204
0.0282529
0.0281588
0.0279897
0.0278944
0.0277288
0.0276343
0.0274758
0.0273854
0.0272385
0.0271537
0.0270209
0.0269443
0.0268276
0.026759
0.0266585
0.0265986
0.026513
0.0264597
0.0263869
0.026339
0.0262756
0.0262311
0.0261757
0.0261337
0.026084
0.0260449
0.0260014
0.0259657
0.0259284
0.0258981
0.0258679
0.0258431
0.0258199
0.0258013
0.0257838
0.0257695
0.0257566
0.0257457
0.0257353
0.0257264
0.0257183
0.0257112
0.0257048
0.0256998
0.025696
0.0256936
0.0256927
0.0256934
0.0256956
0.0256993
0.0257042
0.0257102
0.025717
0.0257244
0.025732
0.0257397
0.0257471
0.0257541
0.0257606
0.0257665
0.0257719
0.0257771
0.0257823
0.0257878
0.0257941
0.0258017
0.0258107
0.0258216
0.0258346
0.0258497
0.025867
0.0258864
0.0259077
0.0259303
0.0259539
0.0259777
0.0260012
0.0260235
0.0260441
0.0260624
0.0260779
0.0260903
0.0260994
0.0261052
0.0261078
0.0261073
0.0261041
0.0260984
0.0260908
0.0260816
0.0260712
0.0260601
0.0260485
0.0260368
0.0260252
0.0260138
0.0260026
0.0259916
0.0259807
0.0259698
0.025959
0.0259483
0.0259379
0.0259282
0.0259195
0.0259124
0.0259072
0.0259044
0.0259043
0.025907
0.0259124
0.0259202
0.02593
0.0259413
0.0259533
0.0259653
0.0259769
0.0259873
0.0259963
0.0260034
0.0260087
0.0260121
0.0260136
0.0260136
0.0260124
0.0260102
0.0260076
0.0260049
0.0260025
0.0260009
0.0260002
0.0260008
0.0260025
0.0260052
0.0260087
0.0260124
0.0260156
0.0260178
0.0260183
0.0260163
0.0260115
0.0260034
0.0259921
0.0259778
0.0259609
0.0259419
0.0259215
0.0259004
0.0258791
0.0258581
0.0258376
0.0258179
0.025799
0.025781
0.0257639
0.025748
0.0257337
0.0257214
0.0257115
0.0257043
0.0257003
0.0256995
0.0257021
0.025708
0.0257172
0.0257297
0.0257453
0.0257641
0.0257861
0.0258113
0.0258396
0.0258708
0.0259044
0.0259397
0.0259759
0.0260118
0.0260461
0.0260774
0.0261046
0.0261269
0.026144
0.026156
0.0261634
0.0261668
0.0261664
0.0261623
0.0261538
0.0261402
0.0261207
0.0260951
0.0260639
0.0260284
0.0259906
0.0259529
0.0259172
0.0258848
0.0258559
0.0258299
0.0258053
0.0257804
0.0257539
0.025725
0.0256939
0.025662
0.0256311
0.0256038
0.0255825
0.0255696
0.0255669
0.0255753
0.0255952
0.0256263
0.0256677
0.0257178
0.0257752
0.0258378
0.0259039
0.0259717
0.0260393
0.0261054
0.0261686
0.0262279
0.0262825
0.0263316
0.0263749
0.0264123
0.0264438
0.0264696
0.0264902
0.0265061
0.0265182
0.0265273
0.0265343
0.0265401
0.0265458
0.026552
0.0265594
0.0265684
0.0265792
0.0265919
0.0266062
0.0266217
0.0266379
0.0266541
0.0266696
0.0266838
0.0266961
0.026706
0.0267132
0.0267175
0.026719
0.0267179
0.0267146
0.0267096
0.0267034
0.0266966
0.0266898
0.0266833
0.0266775
0.0266726
0.0266687
0.0266658
0.0266637
0.0266623
0.0266615
0.026661
0.0266607
0.0266606
0.0266602
0.0266596
0.0266596
0.04
0.0287522
0.0292284
0.0305026
0.0313052
0.0312286
0.0310056
0.0304981
0.0308999
0.0313465
0.0308559
0.0301431
0.0302534
0.0304717
0.0301174
0.0296738
0.029613
0.029578
0.029314
0.029073
0.0289681
0.0288322
0.0286289
0.0284826
0.0283733
0.0282314
0.0280844
0.0279824
0.0278828
0.0277679
0.0276664
0.0275888
0.0275043
0.0274187
0.0273477
0.0272871
0.0272229
0.027167
0.0271245
0.0270894
0.0270581
0.0270395
0.0270317
0.02703
0.0270343
0.027048
0.0270668
0.0270884
0.0271137
0.0271437
0.0271756
0.0272102
0.0272484
0.0272906
0.0273363
0.0273861
0.0274402
0.0274994
0.0275631
0.0276309
0.027704
0.0277831
0.0278666
0.0279547
0.0280491
0.0281491
0.0282534
0.0283635
0.0284804
0.028602
0.0287285
0.0288603
0.0289962
0.0291339
0.0292742
0.029415
0.0295569
0.0296997
0.0298448
0.0299899
0.0301394
0.0302915
0.0304466
0.0306015
0.0307628
0.0309243
0.0310873
0.0312476
0.0314127
0.031571
0.0317269
0.0318733
0.0320205
0.0321542
0.032286
0.0324066
0.0325313
0.0326413
0.0327542
0.0328508
0.0329485
0.0330202
0.0330899
0.0331275
0.0331613
0.0331596
0.0331592
0.0331219
0.0330939
0.0330322
0.0329875
0.0329084
0.0328575
0.0327691
0.0327141
0.0326194
0.0325655
0.0324617
0.0324062
0.0322947
0.0322349
0.0321091
0.0320444
0.0319041
0.0318299
0.0316742
0.031593
0.0314235
0.031335
0.0311558
0.0310632
0.0308781
0.0307827
0.0305973
0.0305025
0.0303213
0.030229
0.0300575
0.0299706
0.029812
0.0297315
0.0295892
0.0295161
0.02939
0.0293239
0.0292142
0.0291535
0.0290575
0.0290013
0.0289172
0.0288634
0.0287889
0.0287379
0.0286715
0.0286229
0.0285648
0.0285205
0.0284703
0.0284312
0.0283901
0.0283574
0.0283242
0.0282979
0.0282721
0.0282507
0.0282299
0.0282124
0.0281954
0.0281803
0.0281658
0.028153
0.0281412
0.0281309
0.0281222
0.0281154
0.0281104
0.0281074
0.0281063
0.0281072
0.0281096
0.0281135
0.0281185
0.0281242
0.0281303
0.0281365
0.0281426
0.0281482
0.0281533
0.0281579
0.0281621
0.0281662
0.0281705
0.0281754
0.0281812
0.0281883
0.0281971
0.0282077
0.0282202
0.0282348
0.0282513
0.0282698
0.02829
0.0283116
0.0283341
0.028357
0.0283796
0.0284013
0.0284214
0.0284395
0.0284549
0.0284674
0.0284767
0.0284829
0.028486
0.028486
0.0284833
0.0284781
0.0284708
0.0284618
0.0284514
0.0284401
0.0284281
0.0284158
0.0284035
0.0283913
0.0283794
0.0283678
0.0283564
0.0283454
0.0283346
0.0283242
0.0283143
0.0283052
0.0282972
0.0282908
0.0282864
0.0282843
0.0282847
0.0282878
0.0282935
0.0283014
0.0283113
0.0283224
0.0283343
0.0283463
0.0283578
0.0283683
0.0283773
0.0283846
0.0283901
0.0283935
0.0283951
0.0283949
0.0283932
0.0283903
0.0283865
0.0283824
0.0283785
0.0283752
0.028373
0.0283723
0.0283732
0.0283756
0.0283793
0.0283836
0.0283879
0.0283912
0.0283927
0.0283914
0.0283866
0.028378
0.0283654
0.0283492
0.02833
0.0283087
0.0282861
0.0282634
0.0282413
0.0282205
0.0282013
0.0281838
0.0281679
0.0281534
0.0281403
0.0281284
0.0281177
0.0281085
0.0281008
0.0280948
0.0280908
0.028089
0.0280896
0.0280929
0.0280989
0.0281079
0.02812
0.0281351
0.0281535
0.0281751
0.0282001
0.0282282
0.0282591
0.0282921
0.0283262
0.0283604
0.0283932
0.0284235
0.0284502
0.0284725
0.0284901
0.0285027
0.0285106
0.0285141
0.0285132
0.0285079
0.0284981
0.0284831
0.0284627
0.0284367
0.0284056
0.0283706
0.0283332
0.0282953
0.0282588
0.0282248
0.0281937
0.0281652
0.0281383
0.0281117
0.028084
0.0280549
0.0280242
0.0279932
0.0279634
0.0279372
0.0279167
0.0279042
0.0279014
0.0279092
0.0279282
0.027958
0.0279979
0.0280464
0.0281021
0.0281632
0.0282278
0.0282942
0.0283608
0.0284259
0.0284884
0.028547
0.028601
0.0286497
0.0286926
0.0287294
0.0287603
0.0287854
0.0288051
0.0288201
0.0288311
0.0288391
0.028845
0.0288497
0.0288541
0.028859
0.0288651
0.0288726
0.0288819
0.0288929
0.0289055
0.0289193
0.0289338
0.0289485
0.0289627
0.0289757
0.028987
0.0289961
0.0290026
0.0290063
0.0290073
0.0290055
0.0290015
0.0289956
0.0289882
0.0289801
0.0289717
0.0289636
0.028956
0.0289493
0.0289436
0.0289389
0.0289353
0.0289326
0.0289305
0.0289291
0.0289281
0.0289274
0.0289268
0.0289262
0.0289262
0.04
0.0286458
0.0293405
0.0299263
0.0301591
0.0302939
0.0305469
0.0310689
0.0314686
0.0309206
0.0306544
0.0311409
0.0313412
0.030813
0.0305498
0.0307625
0.030763
0.0304244
0.0302573
0.0302787
0.0301672
0.0299593
0.029857
0.0297959
0.029661
0.0295289
0.0294539
0.0293706
0.0292563
0.0291684
0.029103
0.0290216
0.0289339
0.0288682
0.028806
0.0287343
0.0286688
0.0286186
0.0285687
0.0285211
0.0284868
0.0284652
0.0284479
0.0284401
0.0284456
0.0284592
0.0284769
0.0285026
0.028535
0.0285701
0.0286076
0.0286499
0.0286954
0.0287432
0.0287944
0.0288497
0.0289089
0.028972
0.029039
0.0291108
0.029188
0.0292694
0.0293551
0.029447
0.0295442
0.0296452
0.0297517
0.029865
0.0299829
0.0301053
0.030234
0.0303676
0.0305042
0.0306436
0.0307859
0.0309289
0.0310734
0.0312188
0.031366
0.0315155
0.0316697
0.0318253
0.0319846
0.0321483
0.0323166
0.0324833
0.0326533
0.0328252
0.0329974
0.0331625
0.0333281
0.0334887
0.0336448
0.0337899
0.0339351
0.0340721
0.0342076
0.0343325
0.0344585
0.0345716
0.0346813
0.0347702
0.0348532
0.0349108
0.0349595
0.0349784
0.0349944
0.034981
0.0349683
0.0349296
0.0349029
0.0348469
0.0348096
0.0347459
0.0347063
0.0346309
0.0345902
0.0345081
0.0344621
0.0343661
0.0343172
0.0342049
0.0341457
0.0340153
0.0339477
0.0337964
0.033719
0.0335506
0.0334656
0.0332818
0.0331913
0.0329978
0.0329044
0.0327053
0.0326114
0.0324137
0.032322
0.0321301
0.0320429
0.0318628
0.0317811
0.0316149
0.0315397
0.0313902
0.0313199
0.0311863
0.031121
0.0310022
0.0309392
0.0308338
0.0307732
0.0306788
0.0306196
0.0305361
0.0304794
0.0304053
0.0303526
0.0302891
0.0302416
0.0301881
0.0301475
0.030104
0.0300695
0.0300341
0.0300056
0.0299763
0.0299514
0.0299266
0.0299048
0.0298832
0.0298639
0.0298456
0.0298296
0.029815
0.0298029
0.029793
0.0297856
0.0297803
0.0297775
0.0297767
0.0297776
0.0297798
0.029783
0.0297868
0.0297907
0.0297944
0.0297979
0.0298008
0.0298032
0.0298055
0.0298077
0.0298103
0.0298136
0.0298182
0.0298242
0.0298319
0.0298414
0.0298528
0.0298661
0.0298813
0.0298982
0.0299167
0.0299365
0.0299572
0.0299783
0.0299993
0.0300196
0.0300384
0.0300553
0.0300698
0.0300815
0.0300903
0.030096
0.0300986
0.0300984
0.0300953
0.0300898
0.0300821
0.0300725
0.0300614
0.0300491
0.0300361
0.0300225
0.0300088
0.0299952
0.0299819
0.029969
0.0299565
0.0299445
0.0299331
0.0299223
0.0299122
0.0299031
0.0298952
0.0298888
0.0298843
0.029882
0.0298822
0.0298848
0.02989
0.0298973
0.0299066
0.0299172
0.0299285
0.0299401
0.0299512
0.0299613
0.0299699
0.0299767
0.0299815
0.0299842
0.0299847
0.0299833
0.0299802
0.0299757
0.0299703
0.0299645
0.0299589
0.029954
0.0299504
0.0299484
0.0299483
0.0299501
0.0299533
0.0299575
0.0299618
0.0299651
0.0299664
0.0299648
0.0299592
0.0299493
0.0299351
0.0299168
0.0298952
0.0298714
0.0298466
0.0298221
0.029799
0.029778
0.0297595
0.0297437
0.0297304
0.0297191
0.0297095
0.0297012
0.029694
0.0296878
0.0296823
0.0296775
0.0296736
0.0296706
0.0296691
0.0296694
0.0296719
0.029677
0.0296848
0.0296957
0.0297098
0.0297272
0.0297482
0.0297726
0.0298001
0.0298301
0.0298615
0.0298933
0.0299241
0.0299528
0.0299784
0.0300002
0.0300177
0.0300305
0.0300386
0.0300418
0.0300401
0.0300335
0.0300218
0.0300051
0.0299832
0.0299564
0.0299251
0.0298902
0.029853
0.0298148
0.0297772
0.0297414
0.0297078
0.0296764
0.0296466
0.0296174
0.029588
0.0295579
0.0295271
0.0294964
0.0294674
0.029442
0.0294222
0.02941
0.0294071
0.0294145
0.0294326
0.0294612
0.0294995
0.0295465
0.0296004
0.0296597
0.0297226
0.0297874
0.0298524
0.0299161
0.0299772
0.0300347
0.0300875
0.0301351
0.0301768
0.0302126
0.0302423
0.0302663
0.0302848
0.0302985
0.0303084
0.0303151
0.0303198
0.0303232
0.0303264
0.03033
0.0303346
0.0303406
0.0303482
0.0303575
0.0303682
0.0303802
0.0303928
0.0304057
0.0304181
0.0304296
0.0304396
0.0304474
0.0304528
0.0304555
0.0304555
0.0304527
0.0304475
0.0304403
0.0304315
0.0304218
0.0304116
0.0304016
0.0303921
0.0303834
0.0303758
0.0303694
0.0303641
0.03036
0.0303568
0.0303544
0.0303526
0.0303514
0.0303505
0.03035
0.03035
0.04
0.0293561
0.0299197
0.0295966
0.0299771
0.0304519
0.0306399
0.0306892
0.0306823
0.0308464
0.0313075
0.0312591
0.0309005
0.0309536
0.0312877
0.0311934
0.0308922
0.0308843
0.0310105
0.0308973
0.0307135
0.0306848
0.030681
0.0305688
0.0304628
0.0304261
0.0303707
0.0302768
0.0302099
0.0301664
0.030099
0.0300248
0.0299714
0.0299194
0.0298516
0.0297892
0.0297378
0.0296832
0.0296255
0.0295798
0.0295432
0.0295096
0.0294845
0.0294745
0.0294735
0.0294797
0.0294963
0.029523
0.0295543
0.0295903
0.0296322
0.029678
0.0297258
0.0297771
0.0298318
0.0298896
0.0299506
0.0300152
0.0300836
0.0301569
0.0302343
0.0303156
0.0304024
0.0304946
0.0305903
0.0306908
0.030798
0.0309097
0.0310254
0.0311475
0.0312753
0.0314063
0.0315413
0.0316802
0.0318213
0.0319634
0.0321073
0.0322524
0.0324003
0.0325511
0.032705
0.0328623
0.0330263
0.0331936
0.0333628
0.0335349
0.0337123
0.0338881
0.034062
0.0342353
0.0344092
0.0345753
0.0347366
0.0348934
0.0350484