# vtk DataFile Version 3.0
LBM output step 780
ASCII
DATASET STRUCTURED_POINTS
DIMENSIONS 400 100 1
ORIGIN 0 0 0
SPACING 1 1 1
POINT_DATA 40000
SCALARS velocity_magnitude double 1
LOOKUP_TABLE default
0
0
0
0
0
0
0
0
0
0
0
0
0
0
0
0
0
0
0
0
0
0
0
0
0
0
0
0
0
0
0
0
0
0
0
0
0
0
0
0
0
0
0
0
0
0
0
0
0
0
0
0
0
0
0
0
0
0
0
0
0
0
0
0
0
0
0
0
0
0
0
0
0
0
0
0
0
0
0
0
0
0
0
0
0
0
0
0
0
0
0
0
0
0
0
0
0
0
0
0
0
0
0
0
0
0
0
0
0
0
0
0
0
0
0
0
0
0
0
0
0
0
0
0
0
0
0
0
0
0
0
0
0
0
0
0
0
0
0
0
0
0
0
0
0
0
0
0
0
0
0
0
0
0
0
0
0
0
0
0
0
0
0
0
0
0
0
0
0
0
0
0
0
0
0
0
0
0
0
0
0
0
0
0
0
0
0
0
0
0
0
0
0
0
0
0
0
0
0
0
0
0
0
0
0
0
0
0
0
0
0
0
0
0
0
0
0
0
0
0
0
0
0
0
0
0
0
0
0
0
0
0
0
0
0
0
0
0
0
0
0
0
0
0
0
0
0
0
0
0
0
0
0
0
0
0
0
0
0
0
0
0
0
0
0
0
0
0
0
0
0
0
0
0
0
0
0
0
0
0
0
0
0
0
0
0
0
0
0
0
0
0
0
0
0
0
0
0
0
0
0
0
0
0
0
0
0
0
0
0
0
0
0
0
0
0
0
0
0
0
0
0
0
0
0
0
0
0
0
0
0
0
0
0
0
0
0
0
0
0
0
0
0
0
0
0
0
0
0
0
0
0
0
0
0
0
0
0
0
0
0
0
0
0
0
0
0
0
0
0
0
0
0
0
0
0
0
0
0
0
0
0
0
0
0
0
0
0
0
0
0
0
0
0
0
0
0
0
0
0
0.04
0.0132441
0.00773239
0.012751
0.015072
0.0147126
0.0118367
0.0113004
0.0113995
0.0114891
0.011194
0.0112178
0.0109912
0.0108376
0.0107349
0.0107466
0.0106127
0.010535
0.0104868
0.0104713
0.0104037
0.0103824
0.0103547
0.010321
0.0102626
0.0102258
0.0101694
0.0101031
0.0100262
0.00995429
0.00986516
0.00976884
0.00967026
0.00956704
0.00945801
0.00934207
0.00923409
0.00911413
0.00900563
0.00888505
0.00878743
0.00867099
0.00858599
0.00848083
0.00841394
0.00832138
0.00827292
0.00819593
0.00816295
0.00809909
0.00807718
0.00802328
0.00800693
0.0079617
0.00794894
0.0079124
0.00790362
0.00787645
0.00787124
0.00785358
0.00785268
0.00784368
0.00784735
0.00784573
0.00785068
0.0078505
0.00785159
0.00784558
0.00783711
0.00782291
0.00780541
0.00778396
0.00776206
0.00773918
0.00771648
0.00769533
0.00767689
0.00766009
0.00764616
0.00763626
0.00762991
0.00762606
0.00762611
0.00762985
0.00763588
0.00764336
0.00765351
0.00766501
0.00767637
0.00768718
0.00769818
0.00770737
0.00771386
0.0077177
0.00771941
0.00771749
0.00771222
0.00770408
0.00769359
0.00767989
0.00766406
0.00764636
0.00762701
0.00760592
0.00758434
0.00756176
0.00753848
0.00751508
0.00749192
0.00746811
0.00744457
0.0074213
0.00739777
0.0073738
0.00735037
0.00732694
0.00730356
0.00728087
0.00725938
0.00723825
0.0072177
0.00719801
0.00717861
0.0071585
0.00713843
0.0071186
0.00709825
0.00707766
0.00705826
0.00703945
0.00702038
0.00700188
0.00698411
0.00696525
0.00694521
0.00692517
0.00690459
0.00688269
0.00686119
0.00684143
0.00682296
0.00680652
0.00679416
0.00678609
0.0067815
0.00678089
0.00678466
0.00679135
0.00679965
0.0068096
0.0068207
0.00683153
0.00684184
0.0068523
0.00686288
0.00687327
0.00688402
0.0068954
0.00690659
0.00691672
0.00692534
0.00693177
0.00693539
0.00693655
0.00693628
0.00693546
0.00693506
0.00693617
0.00693909
0.00694318
0.00694765
0.00695156
0.00695357
0.0069527
0.00694883
0.00694226
0.00693356
0.00692386
0.00691459
0.00690683
0.00690132
0.00689863
0.00689894
0.00690187
0.00690683
0.0069131
0.00691984
0.00692615
0.00693135
0.00693496
0.00693672
0.00693678
0.00693588
0.00693522
0.00693625
0.00694052
0.00694941
0.00696375
0.00698386
0.0070096
0.00704043
0.00707545
0.00711355
0.00715363
0.00719462
0.00723542
0.0072749
0.00731199
0.00734591
0.0073764
0.00740392
0.00742964
0.00745518
0.00748234
0.00751274
0.00754744
0.00758659
0.00762935
0.00767428
0.00771998
0.00776575
0.00781175
0.00785855
0.00790654
0.00795564
0.00800546
0.00805563
0.00810591
0.00815588
0.00820466
0.008251
0.008294
0.00833389
0.00837213
0.00841066
0.00845061
0.00849133
0.00853044
0.00856483
0.0085917
0.00860919
0.00861611
0.00861155
0.0085948
0.00856595
0.00852663
0.00848023
0.00843106
0.00838294
0.00833804
0.00829676
0.00825895
0.00822558
0.00819975
0.00818626
0.00818963
0.00821169
0.00824989
0.00829749
0.00834572
0.00838713
0.00841858
0.0084427
0.00846697
0.0085011
0.00855346
0.00862819
0.00872367
0.00883287
0.00894503
0.00904819
0.00913175
0.00918829
0.00921466
0.00921193
0.0091847
0.00913986
0.00908522
0.00902825
0.00897513
0.00893024
0.00889611
0.00887371
0.00886293
0.00886309
0.0088733
0.00889262
0.00891999
0.00895416
0.00899354
0.00903621
0.00908012
0.00912334
0.00916444
0.00920268
0.00923807
0.00927118
0.00930284
0.00933377
0.00936422
0.00939388
0.00942186
0.00944685
0.00946744
0.0094823
0.00949047
0.00949148
0.00948542
0.00947292
0.00945507
0.00943333
0.00940946
0.00938532
0.00936285
0.00934387
0.00932999
0.00932241
0.00932179
0.0093281
0.00934068
0.00935841
0.00938005
0.00940461
0.00943178
0.00946205
0.00949672
0.00953758
0.00958644
0.00964469
0.00971298
0.0097912
0.00987878
0.00997529
0.0100811
0.0101985
0.0103325
0.0104928
0.0106945
0.0109584
0.011309
0.0117681
0.0123447
0.0130221
0.0137474
0.0144305
0.01496
0.0152394
0.0152362
0.015018
0.0147353
0.014537
0.0144698
0.0144549
0.0143752
0.014191
0.0139726
0.0138277
0.0138086
0.013881
0.013964
0.0139953
0.0139753
0.0139534
0.0139733
0.0140382
0.0141192
0.0141836
0.0142198
0.0142468
0.0142944
0.0143768
0.0144904
0.0146249
0.0147751
0.0149444
0.015137
0.0153469
0.0155577
0.0157502
0.0159104
0.0160329
0.0161174
0.0161668
0.0161858
0.0161847
0.0161768
0.0161741
0.0161812
0.0161955
0.0162124
0.0162285
0.0162434
0.0162601
0.0162801
0.0163042
0.0163305
0.0163682
0.0163936
0.0163851
0.0163851
0.04
0.0219654
0.023295
0.0207297
0.013906
0.013409
0.01654
0.017241
0.0157201
0.0151958
0.0153752
0.0152986
0.0150158
0.0150199
0.0149177
0.0147363
0.0146386
0.0146857
0.0146402
0.0146029
0.0146246
0.0146748
0.0146632
0.0146671
0.0146764
0.0146645
0.0146174
0.014583
0.01454
0.0144782
0.0144079
0.014344
0.0142733
0.0141894
0.0141134
0.0140316
0.0139555
0.0138639
0.0137968
0.0137086
0.0136505
0.0135651
0.0135281
0.0134517
0.0134348
0.0133714
0.0133791
0.0133288
0.0133568
0.01332
0.0133634
0.0133371
0.0133889
0.013373
0.0134305
0.0134257
0.0134865
0.0134952
0.0135588
0.0135794
0.0136454
0.0136796
0.0137464
0.0137896
0.0138565
0.0139036
0.0139623
0.0140066
0.0140562
0.0140922
0.0141309
0.0141638
0.0141971
0.0142261
0.0142595
0.0142928
0.0143264
0.0143617
0.014402
0.0144426
0.0144842
0.0145297
0.0145783
0.0146255
0.0146737
0.0147245
0.0147745
0.0148213
0.0148678
0.0149134
0.0149544
0.0149904
0.0150236
0.0150517
0.0150732
0.0150888
0.0150997
0.0151041
0.0151027
0.015096
0.0150842
0.0150671
0.0150462
0.0150204
0.0149907
0.0149584
0.0149229
0.0148835
0.0148433
0.0148013
0.014756
0.0147099
0.0146641
0.0146151
0.0145649
0.0145165
0.0144671
0.0144157
0.014367
0.0143197
0.0142706
0.0142223
0.0141769
0.0141304
0.0140828
0.0140378
0.0139943
0.0139498
0.0139071
0.0138677
0.013829
0.0137901
0.0137535
0.0137183
0.0136819
0.0136454
0.0136109
0.0135768
0.013543
0.0135121
0.0134854
0.0134616
0.0134418
0.013428
0.0134195
0.013415
0.013415
0.0134194
0.0134266
0.0134351
0.0134454
0.0134568
0.0134682
0.0134796
0.0134917
0.0135042
0.0135169
0.0135299
0.0135431
0.0135555
0.0135663
0.0135751
0.0135819
0.0135866
0.01359
0.0135932
0.0135973
0.0136025
0.0136093
0.0136175
0.013626
0.0136336
0.0136396
0.0136433
0.0136444
0.0136432
0.0136407
0.0136379
0.0136359
0.0136358
0.0136384
0.013644
0.0136526
0.0136639
0.0136774
0.0136922
0.0137077
0.013723
0.0137376
0.0137509
0.013763
0.0137741
0.0137849
0.0137966
0.0138105
0.0138281
0.0138505
0.0138785
0.0139122
0.0139516
0.0139961
0.0140448
0.0140967
0.0141505
0.0142051
0.0142595
0.0143124
0.014363
0.0144107
0.0144555
0.014498
0.0145395
0.0145817
0.014626
0.014674
0.0147265
0.0147836
0.0148445
0.0149078
0.0149721
0.0150366
0.0151011
0.0151658
0.0152307
0.0152957
0.0153602
0.0154239
0.0154866
0.0155481
0.0156074
0.0156636
0.0157157
0.0157639
0.0158093
0.0158536
0.0158976
0.0159408
0.0159811
0.0160156
0.016042
0.0160587
0.0160648
0.0160597
0.0160429
0.016015
0.0159776
0.0159344
0.0158895
0.0158469
0.0158087
0.0157753
0.0157469
0.0157244
0.0157108
0.0157105
0.0157276
0.0157634
0.015815
0.0158757
0.0159369
0.0159915
0.0160365
0.0160748
0.0161136
0.0161621
0.0162283
0.0163154
0.0164214
0.0165386
0.0166561
0.0167619
0.0168455
0.0169
0.0169229
0.0169162
0.0168851
0.0168373
0.016781
0.0167238
0.0166721
0.0166301
0.0166002
0.0165833
0.0165792
0.0165872
0.016606
0.0166345
0.0166715
0.0167153
0.0167641
0.0168159
0.0168687
0.0169204
0.0169697
0.0170158
0.0170587
0.0170986
0.0171362
0.0171721
0.0172063
0.0172386
0.0172682
0.0172942
0.0173155
0.017331
0.0173402
0.0173427
0.0173388
0.0173292
0.0173151
0.017298
0.0172796
0.0172617
0.017246
0.0172345
0.0172284
0.017229
0.0172368
0.0172518
0.0172735
0.0173011
0.0173336
0.0173703
0.0174111
0.0174565
0.0175076
0.0175655
0.0176313
0.0177055
0.0177876
0.0178769
0.0179722
0.018073
0.0181799
0.0182955
0.018426
0.0185823
0.0187812
0.0190459
0.0194034
0.0198784
0.0204829
0.0212033
0.021989
0.0227505
0.0233744
0.0237593
0.0238664
0.023758
0.023583
0.0234922
0.0235335
0.023626
0.0236488
0.0235612
0.023436
0.0233832
0.0234539
0.0236112
0.0237732
0.0238797
0.0239322
0.0239798
0.0240658
0.0241923
0.0243298
0.0244464
0.0245325
0.0246081
0.0247025
0.0248294
0.0249846
0.0251582
0.0253459
0.025552
0.0257805
0.0260247
0.0262679
0.0264911
0.0266813
0.0268335
0.0269474
0.0270245
0.0270688
0.0270889
0.0270975
0.0271062
0.0271207
0.0271398
0.0271596
0.0271784
0.0271969
0.0272152
0.0272338
0.0272553
0.0272743
0.0272846
0.0272834
0.0272713
0.0272713
0.04
0.0231847
0.0211085
0.0180501
0.0192751
0.0213538
0.0203964
0.0188374
0.0191172
0.0196674
0.0191942
0.0186724
0.0186138
0.0185789
0.0183209
0.0181956
0.0181607
0.0180917
0.0180131
0.0180582
0.018109
0.0181354
0.0181721
0.0182454
0.0182778
0.0182866
0.0182933
0.018297
0.0182688
0.018236
0.0182053
0.0181666
0.0181168
0.0180687
0.0180262
0.0179721
0.0179257
0.0178735
0.0178385
0.0177836
0.0177606
0.0177131
0.0177091
0.0176659
0.0176862
0.0176529
0.0176975
0.017673
0.0177421
0.0177257
0.0178131
0.0178031
0.0179022
0.0178988
0.0180051
0.0180098
0.0181204
0.0181376
0.0182493
0.0182796
0.0183923
0.0184369
0.0185465
0.0186034
0.0187092
0.0187714
0.0188671
0.0189311
0.0190145
0.0190738
0.0191478
0.0192064
0.0192729
0.0193327
0.0194009
0.0194643
0.0195334
0.0196039
0.0196782
0.0197514
0.0198291
0.0199085
0.0199878
0.0200663
0.0201473
0.0202271
0.0203037
0.0203787
0.0204532
0.0205228
0.0205872
0.0206478
0.0207041
0.0207527
0.0207945
0.0208304
0.0208598
0.0208808
0.0208946
0.0209021
0.0209026
0.0208949
0.0208812
0.0208619
0.0208354
0.0208027
0.0207666
0.0207249
0.0206775
0.0206279
0.0205756
0.0205177
0.0204581
0.0203979
0.0203337
0.0202669
0.0202014
0.0201342
0.0200644
0.0199958
0.0199282
0.0198585
0.0197891
0.0197219
0.0196545
0.0195869
0.0195221
0.0194598
0.0193981
0.0193385
0.0192824
0.0192276
0.0191731
0.0191204
0.0190692
0.0190177
0.0189667
0.0189181
0.0188717
0.0188274
0.018787
0.0187519
0.0187214
0.0186958
0.018676
0.0186617
0.0186518
0.0186458
0.0186435
0.0186438
0.0186457
0.0186489
0.0186534
0.0186585
0.018664
0.0186702
0.0186772
0.0186847
0.0186924
0.0187002
0.0187077
0.0187145
0.0187201
0.018725
0.0187294
0.0187337
0.0187387
0.018745
0.0187523
0.0187605
0.018769
0.0187771
0.0187837
0.0187883
0.0187911
0.0187921
0.0187918
0.0187914
0.0187917
0.0187935
0.0187976
0.0188045
0.018814
0.0188262
0.0188404
0.0188563
0.0188729
0.0188897
0.0189062
0.0189218
0.0189365
0.0189505
0.0189644
0.0189791
0.0189955
0.0190149
0.0190379
0.0190652
0.0190971
0.0191335
0.019174
0.0192181
0.0192648
0.0193131
0.0193619
0.0194101
0.019457
0.0195019
0.0195445
0.0195853
0.0196248
0.0196643
0.0197052
0.0197487
0.019796
0.0198477
0.019904
0.0199644
0.0200278
0.0200931
0.0201592
0.0202255
0.0202915
0.020357
0.0204216
0.020485
0.0205473
0.0206086
0.0206688
0.0207276
0.0207838
0.0208366
0.0208854
0.0209308
0.0209737
0.0210146
0.0210532
0.0210879
0.0211166
0.0211377
0.02115
0.0211529
0.0211459
0.0211289
0.021102
0.0210667
0.0210261
0.0209838
0.020943
0.0209058
0.0208726
0.0208434
0.0208194
0.0208033
0.0207993
0.0208113
0.0208406
0.0208849
0.0209381
0.0209923
0.0210408
0.021081
0.0211151
0.0211496
0.0211932
0.0212531
0.0213326
0.0214301
0.0215385
0.0216475
0.0217457
0.0218229
0.0218723
0.0218914
0.0218819
0.0218488
0.0217994
0.0217414
0.021682
0.0216271
0.0215808
0.0215457
0.0215229
0.0215123
0.0215135
0.0215253
0.0215465
0.0215757
0.0216115
0.0216521
0.0216959
0.0217413
0.0217867
0.0218309
0.0218729
0.0219121
0.0219481
0.0219809
0.0220105
0.0220368
0.0220599
0.0220795
0.0220952
0.0221068
0.0221138
0.0221157
0.0221124
0.0221039
0.0220907
0.0220735
0.0220533
0.0220315
0.0220096
0.021989
0.0219713
0.0219577
0.0219491
0.0219464
0.0219496
0.0219589
0.0219741
0.0219949
0.0220213
0.0220534
0.0220916
0.0221362
0.0221876
0.0222455
0.0223092
0.0223777
0.0224498
0.0225246
0.0226021
0.0226839
0.0227739
0.0228793
0.0230123
0.0231908
0.0234387
0.023783
0.0242481
0.0248452
0.0255596
0.0263389
0.0270919
0.0277027
0.0280675
0.0281472
0.0280079
0.0278068
0.0277025
0.0277437
0.0278408
0.0278616
0.0277614
0.027619
0.0275523
0.0276141
0.0277638
0.027916
0.0280093
0.0280464
0.0280786
0.0281514
0.0282674
0.0283968
0.028507
0.0285877
0.0286587
0.028749
0.0288716
0.0290216
0.0291882
0.0293666
0.0295607
0.0297739
0.0299997
0.0302219
0.030423
0.0305917
0.0307244
0.0308218
0.0308849
0.0309169
0.030925
0.0309206
0.0309137
0.0309097
0.0309084
0.030907
0.0309043
0.0309022
0.0309006
0.0308958
0.0308907
0.030887
0.0308774
0.030864
0.0308518
0.0308518
0.04
0.025139
0.0263042
0.0261982
0.0258592
0.0231985
0.0216891
0.0226592
0.0233534
0.0222375
0.0214193
0.0216299
0.0216862
0.0212174
0.0209359
0.0209451
0.0208215
0.020635
0.020605
0.0206484
0.0206239
0.0206485
0.0207469
0.0208301
0.0208674
0.0209296
0.0209917
0.0210166
0.0210207
0.021038
0.0210421
0.0210268
0.0210126
0.0210039
0.0209864
0.0209609
0.020947
0.0209281
0.0209151
0.0208931
0.0208963
0.0208795
0.0208953
0.0208839
0.020924
0.0209168
0.0209804
0.0209795
0.0210682
0.0210694
0.0211801
0.0211818
0.0213079
0.0213104
0.0214468
0.0214517
0.0215952
0.021608
0.0217534
0.0217783
0.0219236
0.0219607
0.022101
0.0221516
0.0222825
0.02234
0.0224593
0.0225211
0.0226244
0.0226876
0.0227806
0.0228446
0.0229303
0.0230014
0.0230864
0.0231627
0.0232523
0.0233381
0.0234294
0.0235206
0.0236182
0.0237126
0.0238083
0.0239053
0.0240027
0.0240954
0.0241878
0.0242797
0.0243674
0.0244495
0.0245298
0.0246059
0.0246748
0.0247373
0.0247955
0.0248463
0.024889
0.0249248
0.0249538
0.0249739
0.0249867
0.0249916
0.0249878
0.0249765
0.0249587
0.0249319
0.0248984
0.0248602
0.024815
0.0247629
0.0247084
0.0246493
0.0245836
0.024516
0.0244468
0.0243716
0.024294
0.0242167
0.0241359
0.0240515
0.0239684
0.0238846
0.0237979
0.0237117
0.023628
0.023544
0.0234604
0.0233803
0.0233031
0.0232265
0.023152
0.0230807
0.0230106
0.0229401
0.022871
0.0228035
0.0227361
0.0226697
0.0226068
0.0225476
0.0224916
0.0224403
0.0223953
0.0223557
0.0223209
0.0222919
0.0222686
0.0222494
0.0222333
0.0222207
0.022211
0.0222028
0.0221959
0.0221905
0.0221863
0.0221824
0.0221789
0.0221763
0.0221744
0.0221728
0.0221718
0.0221716
0.0221715
0.0221713
0.0221717
0.0221725
0.0221735
0.0221751
0.0221777
0.0221805
0.022183
0.0221851
0.0221862
0.0221856
0.0221834
0.0221799
0.0221756
0.0221708
0.0221667
0.0221639
0.0221628
0.0221639
0.0221674
0.0221732
0.0221809
0.0221901
0.0222004
0.0222111
0.0222216
0.0222317
0.0222412
0.0222503
0.0222595
0.0222694
0.0222807
0.0222938
0.0223096
0.0223283
0.0223502
0.0223754
0.022404
0.0224355
0.0224692
0.0225041
0.0225393
0.022574
0.0226074
0.0226395
0.0226703
0.0227006
0.0227311
0.0227629
0.0227971
0.0228345
0.0228758
0.0229218
0.0229725
0.0230277
0.0230869
0.0231491
0.023213
0.0232775
0.0233415
0.0234044
0.0234654
0.0235246
0.0235822
0.0236386
0.0236944
0.0237493
0.0238024
0.0238525
0.0238985
0.0239399
0.0239768
0.0240095
0.0240375
0.0240601
0.024076
0.0240842
0.0240843
0.0240762
0.0240596
0.0240345
0.0240012
0.0239608
0.0239156
0.0238687
0.0238228
0.0237799
0.0237404
0.0237047
0.0236737
0.02365
0.0236375
0.0236397
0.0236579
0.0236903
0.0237316
0.0237748
0.0238139
0.0238463
0.0238737
0.0239019
0.0239384
0.0239897
0.0240592
0.0241453
0.0242414
0.0243379
0.0244238
0.0244891
0.0245272
0.0245357
0.0245162
0.0244736
0.0244149
0.0243475
0.0242783
0.024213
0.0241555
0.0241086
0.0240733
0.0240501
0.0240385
0.0240374
0.0240455
0.0240615
0.0240838
0.0241111
0.024142
0.0241753
0.0242097
0.0242442
0.0242772
0.0243077
0.0243344
0.0243564
0.0243733
0.0243848
0.0243914
0.0243933
0.0243912
0.0243853
0.0243758
0.0243626
0.0243456
0.0243247
0.0242999
0.0242716
0.0242406
0.0242078
0.0241743
0.0241413
0.0241101
0.0240817
0.024057
0.0240368
0.0240218
0.0240124
0.0240091
0.0240127
0.0240235
0.0240421
0.0240687
0.0241028
0.0241435
0.0241893
0.0242382
0.0242883
0.024338
0.0243866
0.0244347
0.0244846
0.0245414
0.024614
0.0247159
0.0248669
0.0250919
0.025419
0.0258727
0.0264638
0.0271766
0.0279572
0.0287117
0.0293208
0.0296774
0.0297404
0.0295783
0.029355
0.0292364
0.0292718
0.0293628
0.0293654
0.0292317
0.0290479
0.0289425
0.0289716
0.0290899
0.0292062
0.0292573
0.029248
0.029235
0.0292689
0.0293528
0.0294531
0.0295336
0.0295846
0.0296282
0.0296958
0.0298003
0.029934
0.0300827
0.03024
0.0304104
0.030599
0.0308004
0.0309983
0.0311751
0.0313196
0.0314296
0.0315073
0.031555
0.031575
0.031572
0.0315539
0.0315293
0.0315032
0.031478
0.0314552
0.0314349
0.0314165
0.0314003
0.0313824
0.0313604
0.0313356
0.0313103
0.0312942
0.031287
0.031287
0.04
0.0260041
0.0270537
0.025698
0.0249375
0.0250127
0.0260083
0.0252967
0.0238691
0.0237225
0.0243751
0.0240451
0.0232915
0.0231214
0.0232216
0.0229695
0.0226617
0.022597
0.0225586
0.0224343
0.0223926
0.0224631
0.0225062
0.0225414
0.0226308
0.0227317
0.022785
0.0228342
0.0228955
0.0229376
0.022953
0.0229747
0.0229972
0.0230038
0.0230046
0.023012
0.0230186
0.0230157
0.0230218
0.0230276
0.0230425
0.0230461
0.0230763
0.0230877
0.0231336
0.0231474
0.0232182
0.0232338
0.0233271
0.0233422
0.0234589
0.0234682
0.0236041
0.0236078
0.0237573
0.0237579
0.0239178
0.0239197
0.0240848
0.0240955
0.02426
0.0242809
0.0244403
0.0244725
0.0246188
0.0246608
0.0247925
0.0248399
0.0249552
0.0250094
0.0251109
0.0251707
0.0252667
0.0253355
0.0254291
0.0255099
0.0256081
0.0256971
0.025799
0.0258983
0.0260023
0.026103
0.0262095
0.0263132
0.0264151
0.0265155
0.026617
0.0267135
0.026806
0.0268969
0.0269852
0.0270664
0.027143
0.0272159
0.0272832
0.0273425
0.0273958
0.0274428
0.0274827
0.0275133
0.0275359
0.0275513
0.0275579
0.0275539
0.027543
0.0275247
0.0274961
0.02746
0.0274196
0.0273705
0.0273139
0.0272548
0.0271904
0.0271179
0.0270433
0.0269664
0.0268826
0.0267949
0.0267072
0.0266153
0.0265188
0.0264224
0.0263258
0.0262261
0.0261267
0.0260301
0.0259342
0.0258388
0.0257467
0.0256577
0.0255694
0.0254823
0.0253976
0.0253137
0.0252291
0.0251451
0.025063
0.0249821
0.0249029
0.0248277
0.0247577
0.024692
0.0246311
0.0245766
0.0245283
0.0244849
0.0244465
0.0244136
0.0243849
0.024359
0.0243361
0.0243163
0.0242985
0.0242816
0.0242661
0.0242517
0.0242375
0.0242233
0.0242102
0.0241984
0.0241876
0.0241782
0.0241709
0.0241646
0.024159
0.0241544
0.0241504
0.0241464
0.0241423
0.0241384
0.0241339
0.0241284
0.0241219
0.0241144
0.0241056
0.0240956
0.0240852
0.0240745
0.0240642
0.0240548
0.0240468
0.0240404
0.0240359
0.0240333
0.0240324
0.0240331
0.0240349
0.0240374
0.0240401
0.0240428
0.0240453
0.0240478
0.0240505
0.0240537
0.0240578
0.0240632
0.0240701
0.0240787
0.0240893
0.0241023
0.0241176
0.0241351
0.0241545
0.024175
0.0241957
0.0242161
0.0242357
0.0242547
0.0242735
0.024293
0.0243141
0.0243378
0.0243647
0.0243954
0.0244302
0.0244695
0.0245133
0.0245619
0.0246151
0.0246721
0.0247317
0.0247924
0.0248525
0.0249108
0.0249667
0.0250202
0.025072
0.0251227
0.025173
0.025223
0.025272
0.0253186
0.0253611
0.0253983
0.025429
0.025453
0.0254699
0.0254795
0.0254817
0.0254764
0.0254639
0.0254445
0.0254183
0.0253854
0.0253461
0.0253012
0.0252526
0.0252025
0.0251531
0.0251058
0.0250614
0.0250201
0.0249833
0.0249533
0.0249337
0.0249274
0.0249357
0.0249569
0.0249864
0.0250183
0.0250474
0.0250714
0.025092
0.0251139
0.0251438
0.0251872
0.0252469
0.0253214
0.0254045
0.0254872
0.0255591
0.0256111
0.0256367
0.0256337
0.0256037
0.0255515
0.0254839
0.025408
0.0253303
0.0252562
0.0251894
0.0251324
0.0250866
0.0250522
0.0250289
0.0250158
0.0250117
0.0250152
0.0250253
0.0250407
0.0250605
0.0250837
0.0251093
0.0251357
0.0251613
0.0251841
0.0252023
0.0252144
0.0252196
0.0252179
0.0252097
0.0251963
0.0251788
0.0251582
0.0251353
0.02511
0.0250824
0.0250522
0.0250191
0.0249832
0.024945
0.024905
0.024864
0.0248231
0.0247831
0.0247449
0.0247094
0.0246775
0.0246501
0.0246283
0.0246133
0.024606
0.0246073
0.0246178
0.0246371
0.0246643
0.0246975
0.0247342
0.0247713
0.0248064
0.0248377
0.0248648
0.0248887
0.024913
0.0249435
0.0249902
0.0250679
0.0251974
0.025405
0.0257197
0.026167
0.0267582
0.0274776
0.0282707
0.0290413
0.0296665
0.0300344
0.0301002
0.029932
0.029699
0.0295746
0.0296121
0.0297096
0.0297152
0.0295757
0.0293777
0.0292529
0.0292592
0.0293529
0.029445
0.0294734
0.0294426
0.0294076
0.0294186
0.0294795
0.0295587
0.029623
0.0296642
0.0297031
0.0297676
0.0298679
0.0299958
0.0301384
0.0302902
0.0304549
0.0306359
0.030826
0.0310094
0.0311708
0.0313027
0.031405
0.0314797
0.0315278
0.0315493
0.0315473
0.0315283
0.0315004
0.031469
0.0314364
0.0314058
0.0313803
0.031359
0.0313411
0.0313247
0.0313053
0.0312821
0.0312583
0.0312395
0.0312306
0.0312306
0.04
0.0240884
0.0246111
0.0257532
0.026514
0.0263748
0.0259851
0.0252956
0.0255898
0.0259187
0.0253852
0.0246911
0.0247918
0.0249235
0.024545
0.0241486
0.0241207
0.0240698
0.0238345
0.0236848
0.0236906
0.0236737
0.0236365
0.0236917
0.0237873
0.0238468
0.0239054
0.0239959
0.0240676
0.0241085
0.0241526
0.0242027
0.0242308
0.0242481
0.024272
0.0242933
0.0243036
0.0243154
0.0243356
0.0243509
0.0243704
0.0243906
0.024426
0.024448
0.0244961
0.0245243
0.0245923
0.0246184
0.0247095
0.0247324
0.024845
0.0248595
0.0249939
0.0249966
0.0251481
0.025143
0.0253069
0.025298
0.0254716
0.0254661
0.02564
0.0256435
0.0258118
0.0258231
0.0259782
0.0260007
0.0261376
0.0261684
0.0262899
0.02633
0.0264363
0.026488
0.0265876
0.0266503
0.0267495
0.026828
0.0269289
0.027019
0.0271266
0.0272256
0.0273327
0.027438
0.0275477
0.0276508
0.0277565
0.0278615
0.0279636
0.0280601
0.0281575
0.0282521
0.0283406
0.0284245
0.0285075
0.028585
0.0286552
0.0287209
0.0287827
0.0288357
0.0288813
0.0289208
0.0289516
0.0289721
0.0289857
0.0289898
0.0289827
0.0289682
0.0289463
0.0289128
0.0288723
0.0288271
0.0287724
0.02871
0.0286454
0.028574
0.0284945
0.0284127
0.0283276
0.0282345
0.0281382
0.0280409
0.0279384
0.0278317
0.0277259
0.0276192
0.0275102
0.0274024
0.0272979
0.027194
0.0270909
0.0269911
0.0268939
0.0267967
0.0267002
0.0266052
0.0265105
0.0264148
0.0263198
0.0262273
0.026137
0.0260492
0.0259662
0.0258888
0.0258162
0.0257487
0.0256877
0.0256332
0.0255837
0.0255389
0.0254993
0.025464
0.0254314
0.0254016
0.025375
0.0253503
0.0253261
0.0253027
0.02528
0.0252572
0.0252345
0.0252137
0.0251952
0.0251789
0.0251652
0.0251543
0.025145
0.0251363
0.0251283
0.0251203
0.0251114
0.0251018
0.0250917
0.0250806
0.0250683
0.0250553
0.0250415
0.0250268
0.0250116
0.0249962
0.024981
0.0249662
0.0249522
0.0249394
0.024928
0.024918
0.0249095
0.0249026
0.0248969
0.0248921
0.0248879
0.024884
0.0248803
0.0248768
0.0248737
0.0248711
0.024869
0.0248675
0.0248666
0.0248665
0.0248675
0.0248699
0.0248741
0.02488
0.0248874
0.0248959
0.0249048
0.0249135
0.0249222
0.0249311
0.0249411
0.024953
0.0249676
0.0249857
0.0250075
0.0250332
0.025063
0.0250968
0.025135
0.0251779
0.0252257
0.025278
0.0253335
0.0253904
0.0254467
0.0255009
0.0255524
0.0256013
0.0256483
0.0256947
0.0257415
0.0257889
0.0258363
0.0258822
0.0259242
0.0259599
0.0259875
0.026006
0.026015
0.0260151
0.0260069
0.0259915
0.0259697
0.0259424
0.02591
0.0258729
0.0258313
0.0257856
0.0257369
0.0256869
0.025637
0.0255885
0.0255421
0.0254985
0.0254589
0.0254255
0.0254014
0.0253891
0.0253899
0.0254024
0.0254232
0.0254471
0.02547
0.0254896
0.0255071
0.0255263
0.0255526
0.0255909
0.0256435
0.025709
0.0257821
0.0258544
0.0259163
0.0259591
0.0259768
0.025967
0.0259314
0.0258745
0.0258026
0.0257225
0.0256405
0.0255615
0.0254893
0.0254264
0.0253742
0.025333
0.0253025
0.0252819
0.02527
0.0252658
0.0252682
0.0252766
0.0252903
0.0253087
0.0253308
0.0253547
0.0253784
0.025399
0.025414
0.0254214
0.0254202
0.0254104
0.0253931
0.0253702
0.0253435
0.0253147
0.0252848
0.0252542
0.0252226
0.0251895
0.0251544
0.0251171
0.0250776
0.0250364
0.0249939
0.0249511
0.0249087
0.0248676
0.0248287
0.024793
0.0247616
0.024736
0.0247177
0.0247079
0.0247078
0.0247173
0.0247359
0.0247616
0.0247917
0.0248227
0.0248514
0.0248753
0.024893
0.0249048
0.0249127
0.0249208
0.0249358
0.0249682
0.0250334
0.025153
0.025354
0.0256662
0.0261159
0.0267149
0.0274475
0.0282584
0.0290497
0.0296954
0.0300801
0.0301563
0.0299927
0.0297636
0.029649
0.0297046
0.0298228
0.0298425
0.029704
0.0294953
0.029354
0.0293433
0.0294214
0.0294986
0.0295105
0.02946
0.0294038
0.0293958
0.0294425
0.0295118
0.0295703
0.0296092
0.0296483
0.0297147
0.0298185
0.0299516
0.0300997
0.0302554
0.0304206
0.0305976
0.0307808
0.0309569
0.0311126
0.0312415
0.031344
0.0314226
0.0314775
0.0315086
0.0315175
0.0315081
0.0314856
0.0314553
0.0314215
0.0313885
0.0313618
0.0313431
0.0313289
0.0313143
0.0312956
0.0312744
0.0312538
0.0312388
0.0312339
0.0312339
0.04
0.0242569
0.0249528
0.0253743
0.0255769
0.0256123
0.0257573
0.0261553
0.0264202
0.0257707
0.0254641
0.025858
0.0259493
0.0253775
0.0251179
0.0252664
0.0251791
0.0248121
0.0246589
0.024666
0.0245501
0.0244046
0.0244117
0.0244657
0.024468
0.0245043
0.0246014
0.0246759
0.024717
0.0247799
0.0248487
0.0248863
0.0249121
0.0249509
0.0249808
0.0249938
0.0250106
0.0250351
0.0250535
0.0250691
0.0250965
0.0251248
0.0251569
0.0251867
0.0252375
0.0252717
0.0253353
0.02537
0.0254559
0.0254826
0.0255896
0.0256072
0.0257352
0.0257379
0.0258865
0.025876
0.0260391
0.0260223
0.0261966
0.0261782
0.0263563
0.0263443
0.026515
0.0265104
0.026669
0.0266736
0.0268136
0.0268311
0.0269543
0.0269827
0.0270931
0.0271364
0.0272377
0.0272968
0.0273989
0.027473
0.0275774
0.0276685
0.0277766
0.0278749
0.027987
0.0280929
0.0282014
0.0283069
0.028417
0.0285207
0.0286221
0.0287231
0.028823
0.0289156
0.0290057
0.0290949
0.0291795
0.0292572
0.0293321
0.029403
0.0294675
0.0295247
0.0295755
0.0296193
0.0296552
0.0296804
0.0296966
0.0297053
0.0297031
0.0296891
0.0296689
0.0296399
0.0295988
0.0295516
0.0294999
0.0294369
0.029367
0.0292953
0.0292158
0.0291272
0.0290374
0.0289438
0.0288416
0.0287363
0.0286309
0.0285204
0.0284061
0.0282935
0.0281814
0.0280673
0.0279549
0.027846
0.0277382
0.0276309
0.0275262
0.0274237
0.027321
0.0272179
0.0271156
0.0270137
0.0269112
0.0268095
0.0267112
0.0266163
0.0265243
0.026437
0.0263562
0.0262808
0.0262105
0.0261469
0.0260905
0.026039
0.0259917
0.0259496
0.0259119
0.0258767
0.025844
0.0258144
0.0257863
0.0257577
0.025729
0.025701
0.0256732
0.025646
0.0256219
0.0256016
0.0255843
0.0255701
0.025559
0.0255492
0.0255393
0.0255292
0.0255184
0.0255061
0.0254926
0.0254783
0.025463
0.0254467
0.0254298
0.0254126
0.025395
0.025377
0.0253592
0.0253415
0.0253241
0.0253073
0.0252913
0.0252762
0.0252623
0.0252495
0.0252379
0.0252273
0.0252175
0.0252082
0.0251994
0.025191
0.0251831
0.0251758
0.0251688
0.0251621
0.0251556
0.0251495
0.0251439
0.0251391
0.0251356
0.0251336
0.025133
0.0251335
0.0251349
0.0251367
0.025139
0.0251426
0.0251482
0.0251566
0.0251684
0.0251842
0.0252038
0.0252273
0.0252544
0.0252852
0.0253198
0.0253589
0.0254028
0.0254513
0.0255033
0.025557
0.0256102
0.0256613
0.0257097
0.0257556
0.0258001
0.0258443
0.0258896
0.0259363
0.0259841
0.0260313
0.0260751
0.0261122
0.0261398
0.0261563
0.0261613
0.0261559
0.0261415
0.0261199
0.0260928
0.0260612
0.0260262
0.0259881
0.0259472
0.0259038
0.0258583
0.0258114
0.0257643
0.0257178
0.0256727
0.0256299
0.025591
0.0255579
0.0255333
0.0255192
0.0255167
0.0255248
0.0255405
0.0255599
0.0255798
0.0255983
0.0256161
0.0256364
0.0256634
0.0257008
0.0257506
0.0258112
0.0258779
0.025943
0.0259977
0.026034
0.0260463
0.0260324
0.0259938
0.0259348
0.0258615
0.0257803
0.0256971
0.0256168
0.0255429
0.0254778
0.0254229
0.0253785
0.0253446
0.0253203
0.0253048
0.025297
0.0252965
0.0253025
0.0253148
0.0253326
0.0253547
0.0253792
0.0254034
0.0254241
0.0254385
0.0254442
0.0254401
0.0254265
0.0254048
0.0253772
0.025346
0.0253133
0.0252804
0.0252477
0.0252152
0.025182
0.0251477
0.0251116
0.0250736
0.025034
0.0249932
0.024952
0.0249111
0.0248715
0.0248341
0.0248002
0.0247708
0.0247476
0.0247319
0.0247248
0.024727
0.0247382
0.024757
0.0247809
0.0248068
0.0248311
0.0248509
0.0248641
0.0248704
0.0248708
0.0248683
0.0248671
0.024874
0.0248992
0.0249582
0.0250724
0.0252694
0.0255799
0.0260312
0.0266366
0.0273816
0.0282113
0.0290266
0.0296989
0.0301084
0.0302036
0.0300518
0.0298304
0.0297253
0.029796
0.0299335
0.0299699
0.0298394
0.0296271
0.0294721
0.0294419
0.0294995
0.0295584
0.0295542
0.0294876
0.0294144
0.029389
0.0294195
0.029476
0.0295267
0.0295633
0.0296043
0.0296747
0.0297836
0.029922
0.0300751
0.0302339
0.0303993
0.0305734
0.0307512
0.0309213
0.031072
0.0311982
0.0313008
0.031383
0.0314451
0.0314859
0.0315052
0.031505
0.0314877
0.0314579
0.0314231
0.0313894
0.0313623
0.0313449
0.0313336
0.0313226
0.0313075
0.0312889
0.0312697
0.0312571
0.031255
0.031255
0.04
0.0249877
0.0254896
0.0251271
0.0254823
0.0258478
0.0259958
0.0259648
0.0258549
0.0259054
0.026269
0.0261361
0.0257331
0.0257179
0.0259489
0.025764
0.025424
0.0253605
0.0253924
0.0252016
0.0249991
0.0249701
0.0249688
0.0248972
0.0248821
0.0249498
0.0250001
0.0250249
0.0250846
0.025156
0.0251943
0.0252238
0.0252678
0.0253013
0.0253147
0.0253325
0.0253571
0.0253736
0.0253875
0.0254119
0.0254411
0.0254666
0.0255014
0.0255396
0.0255879
0.025625
0.0256896
0.0257284
0.0258078
0.0258383
0.0259406
0.0259579
0.0260804
0.0260837
0.0262268
0.0262127
0.026374
0.0263507
0.0265222
0.0264962
0.0266741
0.0266497
0.0268207
0.0268053
0.0269629
0.0269556
0.0270976
0.0271052
0.0272291
0.0272518
0.0273646
0.0274026
0.0275071
0.0275644
0.0276675
0.0277413
0.0278496
0.0279393
0.028049
0.0281509
0.0282651
0.0283695
0.0284816
0.0285917
0.0287013
0.0288048
0.0289119
0.0290161
0.0291145
0.0292092
0.0293053
0.029396
0.02948
0.0295617
0.0296421
0.0297145
0.02978
0.0298421
0.029898
0.0299425
0.0299801
0.0300108
0.030029
0.0300365
0.0300377
0.0300265
0.030003
0.029974