# vtk DataFile Version 3.0
LBM output step 950
ASCII
DATASET STRUCTURED_POINTS
DIMENSIONS 400 100 1
ORIGIN 0 0 0
SPACING 1 1 1
POINT_DATA 40000
SCALARS velocity_magnitude double 1
LOOKUP_TABLE default
0
0
0
0
0
0
0
0
0
0
0
0
0
0
0
0
0
0
0
0
0
0
0
0
0
0
0
0
0
0
0
0
0
0
0
0
0
0
0
0
0
0
0
0
0
0
0
0
0
0
0
0
0
0
0
0
0
0
0
0
0
0
0
0
0
0
0
0
0
0
0
0
0
0
0
0
0
0
0
0
0
0
0
0
0
0
0
0
0
0
0
0
0
0
0
0
0
0
0
0
0
0
0
0
0
0
0
0
0
0
0
0
0
0
0
0
0
0
0
0
0
0
0
0
0
0
0
0
0
0
0
0
0
0
0
0
0
0
0
0
0
0
0
0
0
0
0
0
0
0
0
0
0
0
0
0
0
0
0
0
0
0
0
0
0
0
0
0
0
0
0
0
0
0
0
0
0
0
0
0
0
0
0
0
0
0
0
0
0
0
0
0
0
0
0
0
0
0
0
0
0
0
0
0
0
0
0
0
0
0
0
0
0
0
0
0
0
0
0
0
0
0
0
0
0
0
0
0
0
0
0
0
0
0
0
0
0
0
0
0
0
0
0
0
0
0
0
0
0
0
0
0
0
0
0
0
0
0
0
0
0
0
0
0
0
0
0
0
0
0
0
0
0
0
0
0
0
0
0
0
0
0
0
0
0
0
0
0
0
0
0
0
0
0
0
0
0
0
0
0
0
0
0
0
0
0
0
0
0
0
0
0
0
0
0
0
0
0
0
0
0
0
0
0
0
0
0
0
0
0
0
0
0
0
0
0
0
0
0
0
0
0
0
0
0
0
0
0
0
0
0
0
0
0
0
0
0
0
0
0
0
0
0
0
0
0
0
0
0
0
0
0
0
0
0
0
0
0
0
0
0
0
0
0
0
0
0
0
0
0
0
0
0
0
0
0
0
0
0
0
0.04
0.0134839
0.00797111
0.0127881
0.0151994
0.0148303
0.0118939
0.0113228
0.0113968
0.0114695
0.0111613
0.0111819
0.0109427
0.0107803
0.0106651
0.0106599
0.0104972
0.0103841
0.0102906
0.0102246
0.0101045
0.0100355
0.00996616
0.00989996
0.00981834
0.00976774
0.00970468
0.00963885
0.00956738
0.009507
0.00943167
0.00935469
0.00927475
0.00919591
0.00910651
0.00901754
0.00892771
0.00883648
0.00874311
0.00865175
0.00856439
0.00847532
0.00839285
0.00830935
0.00823549
0.00815574
0.00808998
0.00801547
0.00795807
0.00788762
0.00783942
0.00777441
0.00773621
0.00767815
0.00765102
0.00760149
0.00758577
0.00754499
0.00753876
0.00750627
0.00750652
0.00747911
0.00748183
0.00745728
0.00745801
0.00743385
0.00743164
0.0074074
0.00740131
0.00737848
0.00736999
0.00734819
0.0073385
0.00731968
0.00730917
0.0072932
0.00728484
0.0072728
0.00726602
0.00725891
0.0072561
0.00725218
0.00725159
0.0072518
0.00725306
0.00725323
0.00725466
0.00725539
0.00725453
0.00725177
0.00724848
0.00724288
0.00723461
0.00722427
0.0072127
0.00719844
0.00718202
0.00716413
0.00714504
0.00712377
0.00710139
0.00707799
0.00705343
0.00702748
0.00700121
0.00697403
0.00694612
0.00691787
0.00688952
0.00686021
0.00683071
0.00680101
0.00677075
0.00673988
0.00670933
0.00667854
0.00664742
0.0066165
0.00658604
0.00655526
0.00652464
0.00649478
0.00646535
0.00643588
0.00640735
0.00637976
0.00635218
0.00632467
0.00629812
0.00627176
0.00624496
0.00621875
0.00619361
0.00616849
0.00614387
0.00612117
0.00610026
0.00608074
0.00606403
0.00605094
0.00604052
0.00603252
0.0060277
0.00602529
0.00602384
0.00602341
0.00602427
0.00602551
0.00602676
0.00602896
0.00603248
0.00603685
0.00604231
0.0060493
0.00605716
0.00606493
0.00607233
0.00607891
0.00608362
0.00608597
0.00608613
0.00608409
0.00607997
0.00607473
0.0060695
0.0060649
0.00606153
0.00606005
0.00606037
0.00606189
0.0060643
0.00606755
0.00607149
0.00607634
0.00608287
0.00609176
0.00610321
0.0061172
0.00613334
0.00615067
0.0061679
0.00618388
0.00619769
0.00620863
0.00621648
0.00622153
0.00622429
0.00622538
0.00622549
0.00622523
0.006225
0.00622505
0.00622565
0.006227
0.00622931
0.00623286
0.00623804
0.00624517
0.00625445
0.00626601
0.00627978
0.00629549
0.00631267
0.00633077
0.00634917
0.00636724
0.00638443
0.00640034
0.00641475
0.00642763
0.00643916
0.00644974
0.00645987
0.00647018
0.00648129
0.00649379
0.00650809
0.00652441
0.00654276
0.00656292
0.00658456
0.00660729
0.0066308
0.00665486
0.00667939
0.00670438
0.00672989
0.00675589
0.00678226
0.00680866
0.00683452
0.00685908
0.00688141
0.00690064
0.00691606
0.00692736
0.00693488
0.00693986
0.00694486
0.00695418
0.00697431
0.00701424
0.00708539
0.00720103
0.0073749
0.00761914
0.00794164
0.00834325
0.00881535
0.00933851
0.00988278
0.0104099
0.010878
0.0112481
0.0114933
0.011607
0.0116081
0.0115381
0.0114476
0.0113776
0.0113431
0.0113321
0.0113191
0.0112857
0.0112329
0.0111762
0.0111307
0.0110987
0.0110718
0.0110441
0.0110219
0.0110208
0.0110522
0.0111138
0.0111915
0.0112701
0.0113405
0.0113997
0.0114453
0.0114722
0.0114737
0.0114474
0.0113983
0.0113379
0.0112797
0.0112335
0.0112034
0.0111886
0.0111853
0.0111887
0.0111939
0.0111962
0.0111929
0.0111837
0.0111709
0.0111572
0.0111439
0.0111304
0.0111144
0.0110931
0.0110649
0.0110292
0.0109858
0.0109353
0.0108784
0.010816
0.010749
0.0106788
0.0106071
0.010536
0.0104676
0.0104036
0.0103453
0.0102931
0.0102482
0.0102119
0.0101857
0.0101705
0.0101662
0.0101717
0.0101858
0.0102073
0.0102361
0.0102726
0.0103175
0.0103705
0.0104305
0.0104951
0.0105613
0.0106262
0.0106876
0.0107448
0.0107989
0.0108525
0.010909
0.0109706
0.0110377
0.0111076
0.011176
0.0112375
0.0112879
0.0113251
0.0113496
0.0113642
0.0113729
0.0113802
0.0113897
0.0114039
0.0114231
0.0114455
0.0114672
0.0114828
0.0114871
0.011476
0.0114483
0.0114057
0.0113528
0.0112953
0.0112388
0.0111875
0.0111433
0.0111065
0.0110765
0.0110528
0.0110359
0.0110279
0.0110315
0.0110495
0.0110836
0.0111334
0.0111956
0.0112645
0.0113325
0.0113915
0.0114336
0.0114526
0.0114445
0.011408
0.0113442
0.0112567
0.0111505
0.0110316
0.0109059
0.0107789
0.0106554
0.010539
0.0104326
0.0103379
0.0102562
0.0101885
0.010135
0.0100961
0.0100716
0.010061
0.0100638
0.0100779
0.0101024
0.0101363
0.0101778
0.0101778
0.04
0.0223746
0.0238818
0.0212987
0.0143886
0.0137701
0.0168525
0.017529
0.0159649
0.0154003
0.0155496
0.0154321
0.0151215
0.0150974
0.0149623
0.0147279
0.014572
0.014542
0.014407
0.0142693
0.014195
0.0141564
0.0140731
0.0140248
0.0140037
0.0139768
0.0139276
0.0138991
0.0138655
0.0138153
0.0137549
0.0137031
0.0136399
0.0135682
0.0134967
0.0134284
0.0133541
0.0132786
0.0132096
0.0131406
0.0130749
0.0130096
0.0129563
0.0128982
0.0128536
0.0128027
0.0127716
0.0127261
0.0127067
0.0126679
0.0126624
0.0126295
0.0126385
0.0126135
0.0126386
0.0126219
0.012662
0.0126547
0.0127083
0.012708
0.012771
0.0127772
0.0128442
0.012853
0.012921
0.012932
0.0129959
0.0130097
0.0130715
0.0130874
0.013145
0.0131672
0.0132222
0.0132472
0.0133013
0.0133338
0.0133851
0.0134217
0.0134758
0.0135174
0.0135686
0.0136142
0.0136674
0.0137122
0.0137606
0.0138061
0.0138514
0.0138897
0.0139277
0.0139618
0.0139913
0.0140145
0.014035
0.0140503
0.0140598
0.014064
0.0140644
0.0140592
0.0140491
0.0140344
0.0140153
0.0139915
0.0139639
0.0139316
0.0138956
0.0138566
0.013814
0.0137673
0.0137193
0.0136686
0.0136139
0.0135579
0.0135014
0.0134412
0.0133794
0.0133189
0.0132568
0.0131923
0.0131299
0.0130683
0.0130047
0.0129424
0.0128832
0.0128238
0.0127645
0.0127086
0.0126548
0.0126004
0.0125478
0.0124984
0.0124496
0.0124011
0.0123557
0.0123129
0.0122709
0.0122314
0.0121963
0.0121644
0.0121353
0.012111
0.0120917
0.0120756
0.0120626
0.0120536
0.0120472
0.012042
0.0120383
0.0120367
0.012036
0.0120362
0.0120383
0.0120424
0.0120478
0.0120543
0.0120622
0.0120705
0.0120782
0.012085
0.0120905
0.0120941
0.0120953
0.0120948
0.0120931
0.0120905
0.0120879
0.0120865
0.0120869
0.012089
0.0120931
0.0120989
0.0121059
0.0121137
0.0121227
0.012133
0.0121451
0.0121596
0.012177
0.012197
0.0122189
0.0122418
0.0122647
0.0122862
0.0123052
0.0123212
0.0123341
0.012344
0.0123514
0.0123573
0.0123622
0.0123668
0.0123718
0.0123773
0.0123838
0.0123913
0.0124002
0.0124108
0.0124232
0.0124377
0.0124546
0.0124738
0.0124951
0.0125182
0.0125427
0.012568
0.0125934
0.0126184
0.0126425
0.0126654
0.0126868
0.0127067
0.0127255
0.0127434
0.0127609
0.0127787
0.0127974
0.0128174
0.0128392
0.0128628
0.0128883
0.0129154
0.0129437
0.0129728
0.0130024
0.0130321
0.0130619
0.0130916
0.0131214
0.0131511
0.0131806
0.0132094
0.0132372
0.0132631
0.0132863
0.013306
0.0133217
0.0133332
0.013341
0.0133466
0.0133529
0.0133646
0.0133885
0.0134343
0.0135142
0.0136423
0.0138336
0.0141017
0.0144562
0.0148995
0.0154245
0.0160128
0.0166348
0.0172521
0.017821
0.0183003
0.0186596
0.0188889
0.0190036
0.0190429
0.0190569
0.019086
0.0191456
0.0192229
0.0192918
0.0193336
0.0193497
0.0193567
0.0193705
0.0193933
0.019416
0.0194322
0.019449
0.0194833
0.0195478
0.0196406
0.0197481
0.0198555
0.0199548
0.020044
0.0201209
0.02018
0.0202142
0.0202205
0.0202033
0.0201739
0.0201451
0.0201265
0.0201218
0.0201299
0.0201478
0.0201712
0.0201954
0.020216
0.0202299
0.0202365
0.0202377
0.0202363
0.0202337
0.0202294
0.0202214
0.0202075
0.0201862
0.0201571
0.0201204
0.0200764
0.020026
0.0199702
0.0199103
0.0198476
0.019784
0.0197215
0.0196623
0.0196082
0.0195604
0.0195197
0.019487
0.0194636
0.0194508
0.0194494
0.0194592
0.0194792
0.0195081
0.019545
0.0195895
0.0196419
0.0197024
0.0197708
0.0198458
0.0199252
0.0200063
0.0200861
0.0201627
0.0202352
0.0203045
0.0203727
0.0204424
0.0205156
0.020592
0.0206692
0.020743
0.0208085
0.0208621
0.0209021
0.0209292
0.0209464
0.0209577
0.0209673
0.0209788
0.0209942
0.0210139
0.0210358
0.0210561
0.0210696
0.0210712
0.0210574
0.0210271
0.0209826
0.0209284
0.0208707
0.0208149
0.0207652
0.0207237
0.0206905
0.020665
0.0206465
0.0206355
0.0206335
0.0206429
0.0206658
0.0207033
0.0207543
0.0208154
0.0208807
0.0209426
0.0209934
0.0210259
0.0210345
0.0210159
0.0209697
0.0208977
0.0208037
0.0206931
0.0205718
0.0204456
0.02032
0.0201994
0.0200875
0.0199868
0.0198994
0.0198264
0.0197687
0.0197267
0.0197005
0.0196895
0.0196929
0.0197092
0.0197369
0.019774
0.0198156
0.0198591
0.0198591
0.04
0.0234333
0.0214721
0.0184402
0.0196618
0.0217607
0.0208152
0.019222
0.0194609
0.0199967
0.019495
0.0189397
0.0188506
0.01878
0.0184751
0.0182937
0.0181891
0.0180275
0.0178389
0.0177614
0.0176862
0.0175916
0.0175256
0.0175202
0.0175002
0.01748
0.0174775
0.0174837
0.0174634
0.0174403
0.017417
0.0173844
0.0173353
0.0172892
0.0172421
0.0171893
0.0171344
0.0170854
0.0170385
0.0169904
0.0169497
0.0169122
0.0168821
0.01685
0.0168324
0.0168096
0.0168036
0.0167871
0.0167953
0.0167854
0.016808
0.0168047
0.0168437
0.0168475
0.0169044
0.0169147
0.0169893
0.0170069
0.0170967
0.0171185
0.0172214
0.0172465
0.0173557
0.0173823
0.0174956
0.0175219
0.017634
0.0176635
0.017773
0.0178046
0.0179118
0.0179499
0.0180521
0.018097
0.0181984
0.0182507
0.0183483
0.0184109
0.0185082
0.0185759
0.0186715
0.0187471
0.0188389
0.0189143
0.0190029
0.0190786
0.0191579
0.0192273
0.0192996
0.0193614
0.0194201
0.0194712
0.0195194
0.0195581
0.019591
0.0196174
0.0196383
0.0196505
0.0196564
0.0196564
0.0196499
0.0196352
0.0196152
0.0195896
0.0195567
0.0195175
0.0194748
0.0194259
0.0193708
0.0193128
0.019251
0.0191828
0.0191119
0.0190396
0.0189626
0.0188824
0.0188028
0.0187212
0.0186367
0.0185533
0.0184709
0.0183868
0.0183038
0.0182238
0.0181444
0.0180655
0.0179899
0.0179167
0.0178439
0.0177732
0.0177057
0.0176398
0.0175752
0.0175139
0.017456
0.0174004
0.0173482
0.0173009
0.0172581
0.0172191
0.0171851
0.0171562
0.0171312
0.0171094
0.0170912
0.017076
0.0170628
0.0170514
0.0170426
0.0170358
0.0170308
0.017028
0.0170274
0.0170285
0.0170306
0.0170335
0.0170367
0.0170394
0.0170411
0.0170417
0.0170411
0.0170392
0.0170363
0.0170334
0.0170308
0.0170291
0.017029
0.0170309
0.0170345
0.0170396
0.017046
0.0170534
0.0170616
0.0170712
0.0170825
0.0170961
0.0171122
0.017131
0.017152
0.0171744
0.0171972
0.0172193
0.0172396
0.0172574
0.0172724
0.0172848
0.0172948
0.0173031
0.0173105
0.0173175
0.0173246
0.0173323
0.0173409
0.0173505
0.0173613
0.0173735
0.0173873
0.0174029
0.0174203
0.0174396
0.0174607
0.0174833
0.0175071
0.0175317
0.0175565
0.017581
0.017605
0.017628
0.01765
0.0176709
0.0176909
0.0177103
0.0177295
0.0177491
0.0177694
0.0177909
0.0178139
0.0178385
0.0178646
0.0178922
0.0179207
0.0179499
0.0179795
0.0180093
0.0180391
0.0180689
0.0180985
0.018128
0.0181571
0.0181855
0.0182128
0.0182384
0.0182617
0.0182821
0.0182991
0.0183127
0.0183235
0.0183329
0.0183438
0.0183607
0.0183903
0.0184419
0.0185273
0.0186603
0.0188555
0.0191263
0.0194819
0.0199247
0.0204472
0.0210309
0.0216462
0.0222541
0.0228114
0.023277
0.0236211
0.0238346
0.0239353
0.0239646
0.023975
0.0240082
0.0240781
0.0241688
0.0242507
0.0243033
0.024329
0.0243473
0.0243764
0.0244184
0.0244624
0.0245002
0.0245383
0.0245946
0.0246822
0.0247983
0.0249279
0.0250553
0.0251731
0.0252802
0.0253754
0.0254534
0.0255074
0.0255343
0.0255387
0.0255317
0.025526
0.0255304
0.0255479
0.0255773
0.0256155
0.0256587
0.0257028
0.0257436
0.0257778
0.0258046
0.0258256
0.025843
0.0258583
0.0258709
0.0258793
0.0258815
0.0258768
0.0258651
0.0258462
0.0258206
0.0257888
0.0257516
0.0257101
0.0256657
0.0256197
0.0255742
0.0255313
0.025493
0.0254605
0.0254346
0.0254162
0.0254064
0.0254061
0.0254158
0.0254355
0.0254643
0.0255014
0.0255459
0.0255973
0.0256557
0.0257208
0.0257923
0.0258692
0.0259498
0.0260319
0.0261136
0.0261931
0.0262698
0.0263442
0.0264178
0.0264923
0.0265689
0.0266473
0.0267253
0.0267993
0.0268653
0.0269202
0.0269628
0.0269938
0.0270158
0.0270323
0.0270471
0.0270631
0.027082
0.0271039
0.0271268
0.027147
0.0271597
0.0271606
0.0271466
0.0271172
0.0270749
0.0270244
0.0269716
0.0269217
0.0268786
0.0268442
0.0268184
0.0268002
0.0267889
0.0267842
0.0267872
0.0267994
0.0268228
0.0268578
0.0269034
0.0269566
0.0270123
0.0270643
0.0271058
0.0271311
0.0271356
0.0271167
0.0270743
0.02701
0.0269272
0.0268302
0.0267238
0.0266126
0.0265009
0.0263924
0.0262902
0.0261965
0.0261134
0.0260426
0.0259851
0.0259417
0.0259128
0.0258986
0.0258982
0.0259098
0.0259319
0.0259636
0.0259996
0.0260396
0.0260396
0.04
0.0253078
0.0265075
0.0264542
0.0261654
0.0235544
0.0220447
0.0230366
0.0237505
0.0226412
0.0218017
0.0220117
0.0220539
0.0215642
0.0212478
0.0212194
0.0210376
0.0207752
0.0206479
0.0205755
0.0204189
0.020307
0.0202768
0.0202498
0.0202006
0.020205
0.0202333
0.0202426
0.0202421
0.0202606
0.0202656
0.0202497
0.0202309
0.020217
0.0201897
0.0201571
0.0201303
0.020106
0.0200777
0.0200533
0.0200372
0.0200215
0.0200104
0.0200027
0.0200052
0.0200042
0.0200164
0.020024
0.0200493
0.0200631
0.0201027
0.0201236
0.0201791
0.0202072
0.0202801
0.0203135
0.020405
0.0204427
0.0205498
0.0205894
0.0207116
0.0207493
0.0208811
0.0209176
0.0210557
0.0210881
0.0212299
0.0212616
0.021402
0.0214352
0.0215753
0.0216119
0.0217486
0.0217947
0.0219285
0.0219829
0.0221157
0.0221829
0.0223111
0.0223886
0.0225165
0.0226016
0.022722
0.0228135
0.0229293
0.0230183
0.0231236
0.0232119
0.0233065
0.0233842
0.0234664
0.0235367
0.0236038
0.0236598
0.0237138
0.0237578
0.0237952
0.0238244
0.0238479
0.0238622
0.0238698
0.0238695
0.0238614
0.0238459
0.0238239
0.0237931
0.0237557
0.023713
0.0236626
0.0236049
0.0235435
0.0234761
0.0234013
0.0233233
0.0232424
0.0231548
0.0230643
0.0229735
0.0228789
0.022781
0.0226846
0.022588
0.0224892
0.0223917
0.022297
0.0222022
0.022108
0.0220169
0.021928
0.0218395
0.0217531
0.0216699
0.0215886
0.0215089
0.0214328
0.0213608
0.021292
0.0212269
0.0211672
0.0211128
0.0210626
0.0210172
0.0209772
0.0209414
0.0209087
0.0208796
0.0208542
0.0208314
0.020811
0.0207936
0.0207794
0.0207672
0.020757
0.0207493
0.0207431
0.0207374
0.0207322
0.0207275
0.0207223
0.0207163
0.02071
0.0207034
0.0206963
0.0206892
0.0206831
0.0206781
0.0206742
0.0206721
0.0206719
0.020673
0.0206752
0.0206786
0.0206831
0.0206886
0.0206957
0.020705
0.0207166
0.0207307
0.0207472
0.0207656
0.0207847
0.0208036
0.0208215
0.0208374
0.0208508
0.0208617
0.0208704
0.0208773
0.020883
0.0208882
0.0208935
0.0208993
0.0209059
0.0209136
0.0209224
0.0209324
0.0209438
0.0209567
0.020971
0.0209867
0.0210039
0.0210222
0.0210416
0.0210616
0.021082
0.0211024
0.0211224
0.021142
0.021161
0.0211794
0.0211974
0.021215
0.0212328
0.0212509
0.0212698
0.0212898
0.0213111
0.0213337
0.0213574
0.0213823
0.0214078
0.0214339
0.0214602
0.0214865
0.0215128
0.0215387
0.0215643
0.0215893
0.0216136
0.021637
0.0216589
0.0216792
0.0216972
0.0217127
0.0217253
0.0217351
0.0217428
0.02175
0.0217595
0.0217759
0.0218057
0.0218582
0.0219449
0.0220796
0.0222769
0.02255
0.0229084
0.0233541
0.0238796
0.0244661
0.0250831
0.0256913
0.0262467
0.0267075
0.0270437
0.0272464
0.0273343
0.0273514
0.0273521
0.0273797
0.0274469
0.0275346
0.0276093
0.0276492
0.0276587
0.0276613
0.0276787
0.0277132
0.0277511
0.0277815
0.027811
0.0278591
0.0279406
0.0280523
0.0281768
0.0282971
0.0284061
0.0285048
0.0285935
0.0286676
0.0287198
0.0287464
0.0287514
0.0287459
0.0287428
0.0287502
0.0287701
0.0288003
0.0288379
0.0288799
0.0289235
0.0289648
0.0290007
0.0290294
0.0290516
0.029069
0.0290831
0.0290934
0.029099
0.0290985
0.0290917
0.0290787
0.0290596
0.0290344
0.0290037
0.028968
0.0289283
0.0288858
0.0288416
0.0287977
0.0287563
0.0287194
0.0286883
0.0286641
0.0286474
0.0286392
0.0286401
0.0286504
0.02867
0.0286985
0.0287351
0.0287792
0.0288302
0.0288874
0.0289505
0.0290188
0.0290916
0.0291676
0.0292457
0.0293248
0.0294037
0.0294818
0.0295592
0.0296362
0.0297136
0.0297918
0.0298698
0.0299458
0.0300169
0.0300799
0.0301325
0.030174
0.030205
0.030228
0.0302459
0.0302618
0.0302781
0.0302963
0.0303158
0.0303349
0.03035
0.0303568
0.0303516
0.030332
0.030298
0.0302525
0.0302002
0.0301468
0.0300974
0.0300556
0.0300228
0.029999
0.0299829
0.0299732
0.0299695
0.0299721
0.0299819
0.03
0.0300266
0.0300606
0.0300992
0.0301382
0.0301724
0.0301964
0.0302057
0.0301968
0.030168
0.0301196
0.0300532
0.0299718
0.029879
0.0297786
0.0296742
0.029569
0.0294658
0.0293671
0.0292752
0.0291917
0.0291184
0.0290571
0.0290089
0.0289744
0.0289536
0.0289462
0.0289516
0.0289671
0.0289913
0.029023
0.029061
0.029061
0.04
0.0261616
0.0272454
0.0258999
0.0251428
0.0252598
0.0262952
0.0256363
0.0242301
0.0241046
0.0247789
0.024477
0.023726
0.0235597
0.0236551
0.0233925
0.0230559
0.0229503
0.0228498
0.0226389
0.0224849
0.022427
0.0223343
0.0222392
0.022215
0.022228
0.0222181
0.0222285
0.022268
0.0222992
0.0223078
0.0223245
0.0223402
0.0223394
0.0223299
0.0223284
0.0223232
0.022312
0.0223047
0.0223041
0.0223025
0.0223019
0.0223092
0.0223192
0.0223324
0.0223476
0.0223729
0.0223956
0.0224299
0.0224606
0.0225084
0.0225457
0.022608
0.0226526
0.0227303
0.0227802
0.022875
0.0229264
0.0230372
0.0230886
0.0232134
0.0232596
0.023398
0.0234382
0.0235847
0.0236185
0.0237728
0.0238001
0.0239576
0.0239841
0.0241423
0.0241702
0.0243295
0.0243645
0.024521
0.0245683
0.0247243
0.0247832
0.0249364
0.0250115
0.0251597
0.0252437
0.0253877
0.025481
0.0256136
0.0257087
0.0258339
0.0259274
0.0260369
0.0261256
0.0262243
0.0263031
0.0263851
0.0264545
0.0265233
0.0265789
0.0266311
0.0266742
0.0267122
0.0267392
0.0267599
0.0267732
0.0267784
0.0267733
0.0267622
0.0267435
0.0267149
0.0266785
0.0266373
0.0265865
0.0265271
0.0264637
0.0263938
0.0263143
0.0262313
0.0261449
0.0260509
0.0259524
0.0258536
0.0257507
0.0256436
0.0255372
0.0254308
0.0253217
0.0252131
0.0251069
0.0250008
0.0248945
0.0247908
0.0246893
0.0245883
0.0244887
0.0243923
0.0242984
0.0242063
0.0241176
0.0240336
0.0239535
0.0238773
0.0238065
0.0237414
0.0236809
0.0236248
0.023574
0.0235278
0.023485
0.0234458
0.0234109
0.0233795
0.0233507
0.0233252
0.0233032
0.0232834
0.0232652
0.0232489
0.0232341
0.0232198
0.0232056
0.0231921
0.0231789
0.0231654
0.0231521
0.0231397
0.0231276
0.0231161
0.023106
0.0230975
0.0230901
0.0230841
0.0230798
0.0230766
0.0230741
0.0230727
0.0230725
0.0230735
0.0230762
0.0230812
0.0230886
0.0230982
0.0231098
0.0231227
0.023136
0.0231488
0.0231602
0.0231698
0.0231771
0.0231823
0.0231857
0.023188
0.0231895
0.0231911
0.0231931
0.0231958
0.0231995
0.0232043
0.0232102
0.0232172
0.0232252
0.0232343
0.0232445
0.0232555
0.0232675
0.0232802
0.0232934
0.0233071
0.0233209
0.0233347
0.0233485
0.0233621
0.0233756
0.023389
0.0234026
0.0234165
0.023431
0.0234462
0.0234623
0.0234794
0.0234974
0.0235161
0.0235355
0.0235553
0.0235753
0.0235953
0.0236152
0.0236347
0.0236536
0.0236719
0.0236893
0.0237055
0.0237205
0.023734
0.0237458
0.0237555
0.0237631
0.0237684
0.0237717
0.0237738
0.0237762
0.0237819
0.0237954
0.0238233
0.0238744
0.0239603
0.0240945
0.0242916
0.0245649
0.0249239
0.0253711
0.0258988
0.026488
0.027108
0.0277186
0.0282748
0.0287338
0.0290644
0.0292576
0.0293328
0.0293361
0.0293251
0.0293452
0.0294092
0.0294952
0.0295661
0.0295974
0.0295943
0.0295837
0.0295903
0.0296175
0.0296498
0.029674
0.0296957
0.0297355
0.0298092
0.0299132
0.0300289
0.0301389
0.0302365
0.0303238
0.0304021
0.0304673
0.0305122
0.0305333
0.0305346
0.0305269
0.0305218
0.0305266
0.0305422
0.0305663
0.0305966
0.0306314
0.0306684
0.0307042
0.0307349
0.0307583
0.0307743
0.0307846
0.0307901
0.0307908
0.030786
0.0307753
0.0307589
0.0307373
0.0307108
0.0306791
0.0306425
0.0306016
0.0305573
0.0305105
0.0304625
0.0304148
0.0303693
0.0303279
0.0302922
0.0302634
0.0302425
0.03023
0.0302265
0.030232
0.0302461
0.0302686
0.030299
0.0303367
0.0303806
0.03043
0.0304839
0.0305417
0.0306028
0.0306671
0.0307341
0.0308037
0.0308753
0.0309485
0.0310227
0.0310975
0.0311724
0.0312466
0.0313188
0.0313872
0.0314494
0.0315035
0.0315479
0.0315824
0.0316078
0.0316261
0.0316398
0.0316515
0.0316631
0.0316754
0.0316881
0.031699
0.031705
0.0317024
0.0316878
0.0316597
0.0316187
0.0315678
0.0315118
0.0314561
0.0314053
0.0313626
0.0313292
0.0313044
0.0312871
0.0312755
0.0312689
0.0312671
0.0312705
0.0312798
0.0312948
0.0313143
0.0313359
0.0313561
0.0313707
0.0313755
0.031367
0.0313429
0.0313023
0.0312458
0.0311754
0.031094
0.0310045
0.0309099
0.030813
0.030716
0.0306208
0.0305292
0.0304428
0.0303635
0.0302927
0.030232
0.0301829
0.0301464
0.0301228
0.0301115
0.0301123
0.0301236
0.0301439
0.0301727
0.0302084
0.0302084
0.04
0.024189
0.0247488
0.0259113
0.0266723
0.0265585
0.0262095
0.0255638
0.0258906
0.0262647
0.0257687
0.0251058
0.0252332
0.0253976
0.0250387
0.0246547
0.0246319
0.0245798
0.0243232
0.0241263
0.0240576
0.0239408
0.023781
0.0237056
0.0236759
0.0236263
0.0235976
0.0236266
0.0236572
0.0236729
0.0237016
0.0237423
0.0237626
0.0237731
0.0237899
0.0238049
0.0238079
0.0238135
0.0238251
0.0238346
0.0238422
0.0238563
0.0238742
0.0238912
0.0239124
0.0239382
0.0239681
0.0239983
0.0240376
0.0240768
0.0241262
0.0241729
0.0242356
0.0242886
0.024365
0.0244238
0.0245138
0.0245734
0.0246793
0.0247362
0.0248547
0.0249063
0.0250394
0.0250803
0.0252254
0.025258
0.0254123
0.0254347
0.0255978
0.0256147
0.0257812
0.0257987
0.0259689
0.0259907
0.0261626
0.0261973
0.0263676
0.0264164
0.0265872
0.0266514
0.0268151
0.0268951
0.0270539
0.0271409
0.0272885
0.0273848
0.0275206
0.0276135
0.0277369
0.0278303
0.0279374
0.028021
0.0281161
0.0281928
0.02827
0.0283344
0.0283996
0.0284512
0.0284985
0.0285371
0.0285696
0.028591
0.0286069
0.0286135
0.0286106
0.0285999
0.0285823
0.0285533
0.0285168
0.0284742
0.0284214
0.0283596
0.0282936
0.0282193
0.0281357
0.0280484
0.0279566
0.0278564
0.0277527
0.0276477
0.0275377
0.0274238
0.0273107
0.0271964
0.0270793
0.0269628
0.0268481
0.0267329
0.0266176
0.0265045
0.0263933
0.0262824
0.0261731
0.0260667
0.0259631
0.0258616
0.0257636
0.0256705
0.0255817
0.0254968
0.0254173
0.0253436
0.0252747
0.0252101
0.0251509
0.0250967
0.0250462
0.0249996
0.0249578
0.0249198
0.0248847
0.0248526
0.0248238
0.024797
0.0247713
0.0247473
0.0247247
0.0247026
0.024681
0.0246605
0.024641
0.0246219
0.0246037
0.0245869
0.024571
0.0245558
0.0245422
0.0245301
0.0245189
0.0245089
0.0245002
0.0244924
0.0244852
0.0244788
0.0244736
0.0244696
0.0244672
0.024467
0.0244691
0.0244731
0.0244789
0.0244858
0.0244928
0.0244992
0.0245043
0.0245076
0.024509
0.0245088
0.0245073
0.024505
0.0245026
0.0245005
0.0244991
0.0244985
0.0244989
0.0245002
0.0245024
0.0245053
0.0245089
0.0245131
0.024518
0.0245234
0.0245292
0.0245356
0.0245423
0.0245494
0.0245568
0.0245644
0.0245723
0.0245806
0.0245892
0.0245984
0.0246081
0.0246186
0.0246298
0.0246417
0.0246544
0.0246675
0.0246811
0.0246949
0.0247087
0.0247225
0.0247361
0.0247493
0.024762
0.0247739
0.0247848
0.0247945
0.0248027
0.0248094
0.0248145
0.0248178
0.0248194
0.0248192
0.0248174
0.0248144
0.024811
0.024809
0.0248113
0.0248224
0.0248488
0.0248992
0.0249851
0.0251198
0.0253178
0.0255925
0.0259536
0.0264033
0.026934
0.0275262
0.0281487
0.0287605
0.0293158
0.0297709
0.0300941
0.0302764
0.0303386
0.0303292
0.0303088
0.0303248
0.0303893
0.0304767
0.0305452
0.0305679
0.0305513
0.0305267
0.0305232
0.030545
0.0305743
0.0305943
0.0306095
0.0306417
0.0307084
0.0308062
0.030915
0.0310157
0.0311018
0.0311769
0.0312441
0.0313006
0.0313397
0.0313577
0.0313578
0.0313501
0.0313457
0.0313506
0.031365
0.0313859
0.0314114
0.0314405
0.0314721
0.0315034
0.0315307
0.0315511
0.0315636
0.0315689
0.0315678
0.0315605
0.0315468
0.0315272
0.0315025
0.0314739
0.0314413
0.0314046
0.0313636
0.0313189
0.0312715
0.0312221
0.0311716
0.0311212
0.0310725
0.0310275
0.0309881
0.0309556
0.0309311
0.0309152
0.0309079
0.030909
0.0309182
0.0309351
0.0309595
0.0309905
0.0310272
0.031068
0.0311119
0.0311581
0.0312067
0.0312582
0.0313134
0.0313729
0.031437
0.0315053
0.0315766
0.0316495
0.0317223
0.031793
0.0318599
0.0319212
0.0319754
0.0320212
0.032058
0.032086
0.0321061
0.0321198
0.0321294
0.0321367
0.0321434
0.03215
0.032156
0.0321595
0.0321576
0.032147
0.0321252
0.032091
0.0320455
0.0319918
0.0319346
0.0318786
0.0318281
0.0317856
0.0317519
0.0317262
0.0317071
0.0316928
0.0316823
0.0316753
0.0316719
0.0316725
0.0316768
0.0316836
0.031691
0.031696
0.0316952
0.0316853
0.0316636
0.0316286
0.0315797
0.0315182
0.031446
0.0313658
0.0312805
0.0311926
0.0311042
0.0310168
0.0309319
0.0308504
0.0307734
0.0307023
0.0306386
0.0305835
0.0305382
0.0305037
0.0304807
0.0304689
0.0304676
0.0304762
0.0304935
0.0305193
0.0305523
0.0305523
0.04
0.0242822
0.0250063
0.0254659
0.0256921
0.025755
0.0259332
0.0263711
0.0266776
0.0260716
0.0258018
0.0262395
0.0263755
0.025844
0.0256161
0.0257997
0.0257455
0.0254036
0.0252605
0.025261
0.0251129
0.0249021
0.0248152
0.0247578
0.0246404
0.0245619
0.0245599
0.0245565
0.0245399
0.0245644
0.0246089
0.0246317
0.0246485
0.0246823
0.024709
0.0247201
0.0247349
0.0247579
0.0247728
0.0247848
0.0248044
0.0248266
0.0248447
0.0248663
0.0248942
0.0249222
0.024952
0.024987
0.0250276
0.0250686
0.0251177
0.0251683
0.025228
0.0252847
0.025357
0.0254182
0.0255016
0.0255651
0.0256615
0.0257201
0.0258305
0.0258835
0.0260061
0.026048
0.0261865
0.0262157
0.0263651
0.026384
0.0265448
0.0265537
0.0267235
0.0267311
0.0269059
0.0269181
0.0270988
0.0271209
0.0273026
0.0273427
0.0275229
0.0275776
0.0277554
0.0278279
0.0279946
0.0280784
0.0282386
0.0283293
0.0284725
0.0285681
0.0287007
0.028792
0.0289072
0.0289968
0.0290988
0.0291777
0.0292641
0.0293355
0.0294074
0.0294653
0.0295212
0.0295668
0.0296075
0.0296361
0.0296585
0.0296731
0.0296783
0.0296721
0.0296604
0.0296396
0.0296066
0.0295663
0.0295204
0.029462
0.029395
0.0293244
0.0292448
0.0291547
0.0290621
0.0289651
0.0288589
0.0287491
0.0286389
0.0285233
0.0284035
0.0282843
0.0281643
0.0280411
0.0279181
0.0277968
0.0276753
0.0275534
0.0274333
0.0273152
0.0271977
0.0270815
0.0269684
0.0268584
0.0267509
0.0266466
0.0265474
0.026453
0.0263626
0.0262772
0.0261983
0.0261245
0.0260548
0.0259906
0.0259322
0.0258778
0.0258271
0.0257814
0.0257398
0.0257007
0.025664
0.0256304
0.0255986
0.0255675
0.0255378
0.02551
0.025483
0.0254566
0.0254321
0.0254092
0.0253871
0.0253662
0.0253471
0.0253291
0.0253117
0.0252957
0.0252811
0.0252672
0.025254
0.025242
0.0252305
0.0252193
0.0252086
0.025199
0.0251905
0.0251835
0.0251785
0.0251758
0.025175
0.0251757
0.0251773
0.0251791
0.0251801
0.02518
0.0251784
0.0251753
0.0251709
0.0251658
0.0251603
0.025155
0.0251502
0.0251462
0.025143
0.0251407
0.025139
0.025138
0.0251374
0.0251372
0.0251373
0.0251378
0.0251385
0.0251395
0.0251409
0.0251427
0.0251449
0.0251476
0.0251509
0.0251548
0.0251596
0.0251651
0.0251715
0.0251788
0.025187
0.0251958
0.0252051
0.0252146
0.0252243
0.0252339
0.0252433
0.0252524
0.0252611
0.0252693
0.0252767
0.025283
0.0252881
0.0252917
0.0252935
0.0252935
0.0252917
0.0252882
0.0252831
0.0252766
0.025269
0.0252608
0.0252529
0.0252472
0.0252467
0.0252558
0.0252809
0.0253308
0.0254166
0.0255517
0.0257508
0.0260272
0.0263908
0.0268442
0.0273797
0.0279777
0.0286064
0.0292241
0.0297837
0.0302402
0.0305608
0.030736
0.0307875
0.0307661
0.0307358
0.0307465
0.0308104
0.0308992
0.030967
0.0309839
0.0309568
0.0309208
0.0309091
0.0309274
0.0309557
0.0309741
0.0309852
0.0310115
0.0310722
0.0311645
0.0312672
0.0313599
0.0314361
0.0315004
0.0315579
0.031607
0.0316418
0.0316584
0.0316594
0.031654
0.0316523
0.0316594
0.0316744
0.031694
0.0317163
0.0317417
0.03177
0.0317994
0.0318259
0.0318458
0.0318572
0.0318599
0.0318547
0.0318419
0.0318221
0.0317964
0.0317663
0.0317328
0.0316964
0.0316566
0.0316134
0.0315675
0.0315196
0.0314703
0.0314202
0.03137
0.0313212
0.0312756
0.0312353
0.031202
0.0311768
0.0311605
0.0311528
0.0311531
0.0311608
0.0311754
0.0311965
0.0312234
0.0312547
0.0312888
0.0313246
0.0313615
0.0314
0.0314415
0.0314878
0.0315404
0.0316
0.0316663
0.0317376
0.0318113
0.0318845
0.0319544
0.0320186
0.0320756
0.0321243
0.0321645
0.0321964
0.0322203
0.0322373
0.0322487
0.032256
0.0322607
0.0322642
0.0322669
0.0322683
0.0322668
0.03226
0.0322451
0.03222
0.032184
0.0321383
0.032086
0.0320312
0.0319782
0.0319305
0.0318901
0.0318572
0.031831
0.0318099
0.0317924
0.0317777
0.0317655
0.0317562
0.0317501
0.0317469
0.0317456
0.0317443
0.0317403
0.0317305
0.0317121
0.0316828
0.0316411
0.0315872
0.0315223
0.0314488
0.0313695
0.0312875
0.0312052
0.0311247
0.0310472
0.0309737
0.0309048
0.0308411
0.0307832
0.0307318
0.0306878
0.0306521
0.0306251
0.0306073
0.0305987
0.0305988
0.0306074
0.0306233
0.0306462
0.0306751
0.0306751
0.04
0.0249777
0.0255105
0.0251842
0.0255586
0.0259535
0.0261323
0.0261413
0.0260731
0.0261631
0.0265655
0.026479
0.0261187
0.0261453
0.0264195
0.0262808
0.0259823
0.0259583
0.0260257
0.0258585
0.0256545
0.0255956
0.0255377
0.0253839
0.0252681
0.0252322
0.0251848
0.0251254
0.0251184
0.0251423
0.025148
0.0251574
0.0251905
0.0252197
0.0252324
0.0252517
0.0252787
0.0252972
0.025311
0.0253334
0.025357
0.0253756
0.0253968
0.025424
0.0254502
0.0254766
0.025509
0.0255448
0.0255823
0.0256242
0.0256727
0.0257221
0.0257785
0.0258361
0.0259025
0.0259629
0.0260406
0.0261031
0.0261897
0.0262493
0.0263506
0.0264014
0.0265153
0.0265576
0.0266865
0.0267131
0.0268576
0.0268727
0.0270285
0.0270334
0.0272026
0.0272029
0.0273807
0.0273865
0.0275709
0.0275865
0.0277764
0.0278082
0.0279958
0.0280471
0.0282327
0.0282978
0.0284743
0.0285573
0.0287223
0.0288099
0.0289636
0.0290599
0.0291958
0.0292886
0.0294137
0.0295053
0.0296106
0.0296943
0.0297894
0.029864
0.0299396
0.030004
0.0300676
0.0301159
0.0301608
0.030197
0.0302243
0.0302402
0.0302514
0.030251
0.0302393
0.0302208
0.030194
0.0301533
0.030106
0.0300524