# vtk DataFile Version 3.0
LBM output step 1720
ASCII
DATASET STRUCTURED_POINTS
DIMENSIONS 400 100 1
ORIGIN 0 0 0
SPACING 1 1 1
POINT_DATA 40000
SCALARS velocity_magnitude double 1
LOOKUP_TABLE default
0
0
0
0
0
0
0
0
0
0
0
0
0
0
0
0
0
0
0
0
0
0
0
0
0
0
0
0
0
0
0
0
0
0
0
0
0
0
0
0
0
0
0
0
0
0
0
0
0
0
0
0
0
0
0
0
0
0
0
0
0
0
0
0
0
0
0
0
0
0
0
0
0
0
0
0
0
0
0
0
0
0
0
0
0
0
0
0
0
0
0
0
0
0
0
0
0
0
0
0
0
0
0
0
0
0
0
0
0
0
0
0
0
0
0
0
0
0
0
0
0
0
0
0
0
0
0
0
0
0
0
0
0
0
0
0
0
0
0
0
0
0
0
0
0
0
0
0
0
0
0
0
0
0
0
0
0
0
0
0
0
0
0
0
0
0
0
0
0
0
0
0
0
0
0
0
0
0
0
0
0
0
0
0
0
0
0
0
0
0
0
0
0
0
0
0
0
0
0
0
0
0
0
0
0
0
0
0
0
0
0
0
0
0
0
0
0
0
0
0
0
0
0
0
0
0
0
0
0
0
0
0
0
0
0
0
0
0
0
0
0
0
0
0
0
0
0
0
0
0
0
0
0
0
0
0
0
0
0
0
0
0
0
0
0
0
0
0
0
0
0
0
0
0
0
0
0
0
0
0
0
0
0
0
0
0
0
0
0
0
0
0
0
0
0
0
0
0
0
0
0
0
0
0
0
0
0
0
0
0
0
0
0
0
0
0
0
0
0
0
0
0
0
0
0
0
0
0
0
0
0
0
0
0
0
0
0
0
0
0
0
0
0
0
0
0
0
0
0
0
0
0
0
0
0
0
0
0
0
0
0
0
0
0
0
0
0
0
0
0
0
0
0
0
0
0
0
0
0
0
0
0
0
0
0
0
0
0
0
0
0
0
0
0
0
0
0
0
0
0
0.04
0.0177649
0.0116586
0.0143827
0.0176186
0.0176512
0.0143065
0.0130328
0.0128857
0.0129419
0.0125616
0.0124788
0.0121608
0.0119354
0.0117752
0.0117573
0.0115818
0.0114435
0.0113252
0.0112447
0.0111025
0.0110019
0.0108966
0.0107915
0.0106625
0.0105627
0.0104522
0.0103414
0.0102262
0.0101294
0.0100249
0.00992564
0.00982949
0.00974354
0.0096532
0.0095699
0.0094902
0.0094162
0.00934149
0.00927412
0.00920973
0.00914933
0.00909016
0.00903637
0.00898384
0.0089337
0.00888468
0.00883872
0.00879315
0.00874927
0.00870626
0.0086651
0.00862419
0.00858456
0.00854574
0.00850843
0.00847176
0.00843671
0.00840327
0.00837174
0.00834156
0.00831346
0.00828715
0.00826211
0.0082382
0.00821563
0.00819389
0.00817256
0.00815246
0.0081332
0.00811487
0.00809758
0.00808259
0.00806839
0.00805632
0.00804597
0.00803823
0.00803042
0.00802529
0.00802046
0.00801686
0.008011
0.00800712
0.00800037
0.00799321
0.0079815
0.00797114
0.00795501
0.00793855
0.00791643
0.00789663
0.00786995
0.00784539
0.00781513
0.00778922
0.00775579
0.00772692
0.00769097
0.00766026
0.00761998
0.00758556
0.0075412
0.00750266
0.00745254
0.00740979
0.00735473
0.0073075
0.00724764
0.00719735
0.00713353
0.00708037
0.00701369
0.00695866
0.00688921
0.00683254
0.00676111
0.00670274
0.00662928
0.0065697
0.00649475
0.00643394
0.00635861
0.00629802
0.00622337
0.00616399
0.00609228
0.00603532
0.00596685
0.0059133
0.0058495
0.00579874
0.00573937
0.0056926
0.00563776
0.0055935
0.00554326
0.00550182
0.00545439
0.00541466
0.00537132
0.00533425
0.00529499
0.00526245
0.00522926
0.00520094
0.00517285
0.00514956
0.00512707
0.00510892
0.00509365
0.00508334
0.00507582
0.00507208
0.0050705
0.00507056
0.00507088
0.00507196
0.00507368
0.0050764
0.00508037
0.00508592
0.00509253
0.00509947
0.00510626
0.00511275
0.0051192
0.00512655
0.00513628
0.00514967
0.0051674
0.00518937
0.00521449
0.00524062
0.00526513
0.00528548
0.00529962
0.00530631
0.0053055
0.00529828
0.00528653
0.00527264
0.00525923
0.00524875
0.00524315
0.00524385
0.00525167
0.00526683
0.00528903
0.00531759
0.00535154
0.00538969
0.00543076
0.00547347
0.00551656
0.00555888
0.00559944
0.00563747
0.0056724
0.00570392
0.00573194
0.0057566
0.00577818
0.00579712
0.00581395
0.00582924
0.00584354
0.00585741
0.00587132
0.00588564
0.00590063
0.00591641
0.00593296
0.00595011
0.00596759
0.00598503
0.00600205
0.00601825
0.00603331
0.00604698
0.00605915
0.00606984
0.0060792
0.00608745
0.00609492
0.0061019
0.00610868
0.00611545
0.00612229
0.00612916
0.00613589
0.00614222
0.00614777
0.00615216
0.00615498
0.00615584
0.0061544
0.00615044
0.00614383
0.00613459
0.00612288
0.006109
0.00609338
0.00607652
0.00605898
0.00604129
0.00602393
0.00600727
0.00599157
0.00597695
0.0059634
0.00595082
0.00593897
0.00592761
0.00591642
0.00590515
0.00589358
0.00588158
0.0058691
0.00585619
0.00584296
0.00582958
0.00581622
0.00580309
0.00579038
0.00577829
0.00576698
0.00575662
0.00574738
0.00573941
0.00573286
0.00572788
0.00572462
0.00572325
0.00572393
0.00572678
0.00573189
0.00573926
0.00574881
0.00576039
0.00577376
0.00578862
0.00580462
0.00582144
0.00583873
0.00585617
0.00587346
0.00589031
0.00590648
0.00592174
0.00593593
0.00594899
0.00596093
0.00597189
0.00598208
0.00599178
0.00600126
0.00601073
0.00602031
0.00603001
0.00603965
0.00604898
0.00605764
0.00606524
0.00607145
0.00607596
0.00607864
0.00607948
0.00607864
0.00607648
0.00607351
0.00607039
0.00606786
0.00606668
0.00606756
0.00607107
0.00607753
0.00608699
0.0060992
0.00611364
0.00612957
0.00614617
0.00616262
0.00617819
0.00619233
0.00620467
0.00621503
0.0062234
0.00622989
0.00623471
0.00623817
0.00624064
0.00624261
0.00624465
0.00624741
0.00625155
0.00625768
0.00626625
0.00627744
0.0062911
0.00630675
0.00632362
0.00634077
0.00635723
0.00637214
0.00638482
0.00639484
0.00640197
0.00640613
0.00640725
0.00640524
0.00639994
0.0063912
0.00637899
0.00636354
0.0063454
0.00632545
0.00630482
0.00628468
0.00626607
0.00624967
0.00623566
0.00622364
0.00621264
0.0062012
0.00618761
0.00617016
0.00614748
0.00611874
0.00608388
0.00604357
0.0059992
0.00595265
0.00590615
0.00586198
0.00582233
0.00578897
0.00576313
0.00574534
0.0057354
0.00573255
0.00573569
0.00574372
0.0057558
0.00577152
0.00579075
0.00581332
0.00583872
0.00586574
0.00589238
0.00591603
0.00593411
0.00594441
0.00594577
0.00593827
0.00592349
0.00590335
0.00588018
0.00585558
0.00583091
0.00583091
0.04
0.0278089
0.0303781
0.0279438
0.0202477
0.0183034
0.0211352
0.022034
0.0202605
0.0191695
0.019015
0.0187931
0.0183741
0.0182095
0.0179773
0.0176491
0.0174063
0.0173051
0.0171141
0.0168954
0.0167331
0.0166038
0.0164248
0.0162611
0.0161243
0.015982
0.0158202
0.0156814
0.0155528
0.0154177
0.0152834
0.015168
0.0150555
0.0149427
0.0148384
0.0147464
0.0146561
0.014571
0.0144962
0.0144295
0.014366
0.0143098
0.0142611
0.0142168
0.0141751
0.0141383
0.014105
0.0140735
0.0140438
0.0140171
0.0139923
0.0139689
0.0139474
0.0139286
0.0139118
0.0138968
0.0138848
0.013876
0.0138701
0.0138671
0.0138683
0.0138729
0.0138805
0.0138914
0.0139058
0.0139222
0.0139411
0.013963
0.0139871
0.0140125
0.0140416
0.0140731
0.0141066
0.0141424
0.0141831
0.0142248
0.0142688
0.0143153
0.0143657
0.0144138
0.014464
0.0145141
0.014565
0.0146094
0.0146554
0.0146967
0.0147363
0.0147661
0.0147977
0.0148204
0.0148414
0.0148513
0.0148647
0.0148659
0.0148683
0.0148582
0.014853
0.0148318
0.0148148
0.0147814
0.0147534
0.0147058
0.014665
0.014603
0.0145492
0.0144732
0.014407
0.0143169
0.0142403
0.0141386
0.0140514
0.0139395
0.0138459
0.0137241
0.013623
0.0134956
0.0133896
0.0132545
0.013146
0.0130084
0.0128964
0.0127567
0.0126471
0.0125083
0.0124002
0.0122666
0.0121644
0.0120362
0.0119404
0.0118215
0.011733
0.0116224
0.0115424
0.0114425
0.0113696
0.0112791
0.011214
0.011133
0.0110736
0.0110018
0.01095
0.0108882
0.0108438
0.0107931
0.0107573
0.0107163
0.0106878
0.0106573
0.0106375
0.0106174
0.0106076
0.0105993
0.0105983
0.010598
0.0106028
0.0106074
0.0106148
0.0106225
0.0106333
0.0106452
0.0106596
0.0106752
0.010692
0.0107088
0.0107257
0.0107428
0.0107614
0.0107824
0.0108072
0.0108364
0.0108697
0.0109058
0.0109427
0.0109779
0.0110086
0.0110329
0.0110499
0.0110596
0.0110632
0.0110627
0.0110606
0.0110595
0.0110618
0.0110696
0.011084
0.0111058
0.011135
0.0111712
0.0112136
0.011261
0.0113121
0.0113655
0.0114199
0.011474
0.0115265
0.0115766
0.0116233
0.0116662
0.0117051
0.0117398
0.0117706
0.0117979
0.011822
0.0118437
0.0118635
0.011882
0.0118998
0.0119175
0.0119354
0.0119538
0.0119728
0.0119925
0.0120126
0.0120329
0.012053
0.0120724
0.012091
0.0121082
0.0121238
0.0121378
0.0121502
0.0121611
0.0121707
0.0121794
0.0121875
0.0121951
0.0122026
0.0122099
0.0122171
0.0122238
0.0122297
0.0122347
0.0122381
0.0122396
0.0122389
0.0122356
0.0122295
0.0122206
0.0122089
0.0121946
0.0121782
0.01216
0.0121407
0.0121208
0.0121009
0.0120815
0.012063
0.0120457
0.0120297
0.012015
0.0120015
0.0119888
0.0119768
0.0119652
0.0119535
0.0119417
0.0119296
0.0119172
0.0119044
0.0118914
0.0118785
0.0118658
0.0118535
0.011842
0.0118314
0.011822
0.0118139
0.0118075
0.0118028
0.0118001
0.0117993
0.0118008
0.0118046
0.0118108
0.0118194
0.0118304
0.0118437
0.0118592
0.0118766
0.0118956
0.0119157
0.0119366
0.0119579
0.0119793
0.0120003
0.0120208
0.0120405
0.0120591
0.0120764
0.0120924
0.012107
0.0121204
0.0121326
0.012144
0.0121549
0.0121655
0.0121761
0.0121868
0.0121977
0.0122084
0.0122189
0.0122288
0.0122376
0.0122451
0.012251
0.0122552
0.0122577
0.0122588
0.0122589
0.0122585
0.0122583
0.0122591
0.0122614
0.0122661
0.0122735
0.0122838
0.012297
0.0123128
0.0123306
0.0123495
0.0123688
0.0123876
0.0124053
0.0124212
0.0124349
0.0124464
0.0124556
0.0124626
0.0124678
0.0124715
0.0124741
0.0124763
0.0124786
0.0124817
0.012486
0.0124922
0.0125006
0.0125112
0.0125237
0.0125378
0.0125525
0.0125671
0.0125806
0.0125922
0.0126012
0.0126072
0.01261
0.0126094
0.0126054
0.0125979
0.012587
0.0125725
0.0125546
0.0125337
0.0125103
0.0124853
0.0124599
0.0124351
0.0124119
0.0123909
0.0123722
0.0123553
0.0123394
0.012323
0.0123046
0.0122826
0.0122557
0.0122234
0.0121856
0.0121431
0.0120974
0.0120503
0.012004
0.0119606
0.0119223
0.0118906
0.0118666
0.0118506
0.0118422
0.0118405
0.0118444
0.0118526
0.0118644
0.0118791
0.0118967
0.011917
0.0119393
0.0119625
0.0119846
0.0120033
0.0120158
0.0120204
0.0120161
0.0120033
0.0119833
0.0119587
0.0119322
0.0119059
0.0118809
0.0118809
0.04
0.0280223
0.0267199
0.0242641
0.0254321
0.0274817
0.0266201
0.0247335
0.0246511
0.0251036
0.0245401
0.02374
0.0234197
0.0232414
0.0228503
0.0225397
0.0223235
0.0220726
0.0217849
0.0215949
0.021412
0.0211944
0.0209832
0.0208219
0.0206454
0.0204596
0.0202909
0.0201419
0.0199809
0.0198275
0.0196905
0.0195612
0.0194291
0.0193102
0.0192028
0.0191003
0.0190029
0.0189197
0.0188455
0.018778
0.0187197
0.0186729
0.0186323
0.0185975
0.0185694
0.0185472
0.0185275
0.0185112
0.0184985
0.0184884
0.01848
0.0184742
0.0184712
0.0184709
0.0184728
0.018478
0.0184872
0.0184999
0.0185161
0.0185371
0.018563
0.0185926
0.0186267
0.0186658
0.0187087
0.0187546
0.0188051
0.0188593
0.0189163
0.0189767
0.0190419
0.0191096
0.0191809
0.0192564
0.0193361
0.0194173
0.0195032
0.0195921
0.0196831
0.0197738
0.0198688
0.0199622
0.0200551
0.0201447
0.0202365
0.0203208
0.0204031
0.0204787
0.0205544
0.0206182
0.0206808
0.0207335
0.0207864
0.0208247
0.0208638
0.0208895
0.0209164
0.0209249
0.0209357
0.0209282
0.0209224
0.0208935
0.0208693
0.0208213
0.0207772
0.0207068
0.0206457
0.0205557
0.0204755
0.0203674
0.0202734
0.020147
0.020039
0.0198995
0.0197798
0.019626
0.0194985
0.0193347
0.0191989
0.0190275
0.0188889
0.0187117
0.0185718
0.0183945
0.0182572
0.0180816
0.0179505
0.0177813
0.0176576
0.0174967
0.0173832
0.0172328
0.0171293
0.0169909
0.0168987
0.0167725
0.0166901
0.0165766
0.016504
0.0164029
0.0163399
0.016253
0.0162005
0.0161274
0.0160851
0.016026
0.0159929
0.0159467
0.0159235
0.0158914
0.0158787
0.0158601
0.0158573
0.0158494
0.0158525
0.0158516
0.0158585
0.0158626
0.0158731
0.0158828
0.0158976
0.015912
0.0159294
0.015946
0.0159641
0.0159817
0.0160017
0.0160238
0.0160502
0.0160806
0.0161157
0.0161536
0.0161926
0.0162301
0.0162638
0.0162914
0.016312
0.0163254
0.0163327
0.0163357
0.0163367
0.0163383
0.0163428
0.0163522
0.0163678
0.0163904
0.0164203
0.0164569
0.0164996
0.0165473
0.0165988
0.0166526
0.0167074
0.016762
0.016815
0.0168656
0.016913
0.0169566
0.0169963
0.0170318
0.0170636
0.0170918
0.017117
0.0171397
0.0171605
0.0171799
0.0171986
0.0172169
0.0172352
0.0172539
0.0172729
0.0172924
0.0173122
0.017332
0.0173516
0.0173705
0.0173885
0.0174053
0.0174207
0.0174346
0.0174471
0.0174583
0.0174684
0.0174778
0.0174866
0.0174951
0.0175034
0.0175115
0.0175193
0.0175267
0.0175333
0.0175389
0.0175429
0.0175451
0.0175451
0.0175428
0.0175379
0.0175305
0.0175206
0.0175084
0.0174943
0.0174786
0.017462
0.017445
0.017428
0.0174114
0.0173957
0.0173811
0.0173676
0.0173552
0.0173438
0.0173331
0.0173228
0.0173128
0.0173027
0.0172923
0.0172815
0.0172703
0.0172587
0.0172468
0.0172349
0.0172232
0.0172119
0.0172013
0.0171917
0.0171833
0.0171763
0.017171
0.0171674
0.0171657
0.0171661
0.0171686
0.0171733
0.0171805
0.0171899
0.0172018
0.0172158
0.017232
0.0172499
0.0172693
0.0172897
0.0173109
0.0173324
0.0173539
0.0173751
0.0173955
0.017415
0.0174334
0.0174504
0.0174659
0.0174801
0.017493
0.0175047
0.0175156
0.0175259
0.0175361
0.0175462
0.0175565
0.017567
0.0175775
0.0175879
0.0175978
0.0176069
0.0176148
0.0176212
0.0176261
0.0176295
0.0176315
0.0176325
0.0176332
0.0176341
0.0176358
0.0176391
0.0176444
0.0176523
0.0176628
0.017676
0.0176915
0.0177088
0.0177274
0.0177464
0.0177651
0.0177828
0.0177988
0.0178128
0.0178246
0.0178339
0.0178411
0.0178463
0.01785
0.0178528
0.0178553
0.0178581
0.0178618
0.0178668
0.0178735
0.0178822
0.0178928
0.0179051
0.0179186
0.0179327
0.0179467
0.0179598
0.0179712
0.0179803
0.0179865
0.0179894
0.017989
0.0179852
0.0179778
0.0179671
0.0179531
0.0179361
0.0179166
0.017895
0.0178723
0.0178493
0.017827
0.0178059
0.0177867
0.0177693
0.0177534
0.0177381
0.0177223
0.0177047
0.0176839
0.0176588
0.0176289
0.0175942
0.0175553
0.0175134
0.0174702
0.0174277
0.017388
0.0173528
0.0173238
0.017302
0.0172878
0.0172808
0.0172803
0.0172853
0.0172946
0.0173076
0.0173236
0.0173424
0.0173639
0.0173875
0.017412
0.0174355
0.0174559
0.0174706
0.0174778
0.0174763
0.0174667
0.0174504
0.0174292
0.0174055
0.0173816
0.0173582
0.0173582
0.04
0.02973
0.0310891
0.0315061
0.0316699
0.029332
0.0277288
0.0286772
0.0295648
0.0284712
0.0273996
0.0274452
0.0274746
0.026916
0.0264331
0.026289
0.0260478
0.0256997
0.0254561
0.0252861
0.0250281
0.0247854
0.0246077
0.0244291
0.0242074
0.024022
0.0238619
0.0236901
0.0235107
0.0233626
0.0232204
0.0230736
0.0229356
0.0228182
0.0227015
0.0225894
0.0224914
0.0224077
0.0223279
0.0222598
0.0222057
0.0221618
0.022124
0.0220971
0.0220786
0.0220656
0.0220569
0.0220545
0.0220558
0.02206
0.0220671
0.022078
0.0220916
0.022108
0.0221272
0.0221506
0.0221777
0.0222083
0.0222433
0.0222839
0.0223288
0.022378
0.0224328
0.0224928
0.0225564
0.0226246
0.0226979
0.0227748
0.0228556
0.0229412
0.0230311
0.0231243
0.0232226
0.0233251
0.0234312
0.023541
0.0236561
0.0237727
0.0238923
0.0240147
0.0241399
0.0242625
0.0243871
0.0245111
0.0246339
0.02475
0.0248669
0.0249784
0.0250859
0.0251838
0.0252824
0.0253711
0.0254557
0.0255291
0.0256034
0.0256632
0.0257204
0.0257631
0.0258055
0.0258282
0.0258502
0.0258517
0.0258526
0.0258298
0.0258087
0.0257614
0.0257177
0.0256472
0.025582
0.0254877
0.0254039
0.0252886
0.0251854
0.025051
0.0249335
0.0247797
0.0246482
0.0244811
0.0243382
0.0241567
0.0240077
0.0238176
0.0236631
0.0234677
0.0233149
0.0231175
0.0229681
0.022774
0.0226323
0.0224434
0.0223113
0.0221314
0.0220108
0.0218408
0.0217322
0.0215745
0.0214778
0.021332
0.0212469
0.0211152
0.0210414
0.0209241
0.0208626
0.0207615
0.0207108
0.020625
0.0205853
0.0205149
0.020485
0.0204309
0.0204123
0.0203737
0.0203644
0.0203392
0.0203367
0.0203205
0.020322
0.0203137
0.0203193
0.0203182
0.0203283
0.0203339
0.0203469
0.020356
0.0203702
0.020382
0.0203984
0.0204156
0.0204388
0.0204652
0.0204971
0.0205315
0.0205682
0.0206032
0.0206351
0.0206614
0.0206812
0.020694
0.0207009
0.0207035
0.020704
0.0207049
0.0207086
0.0207169
0.0207314
0.0207529
0.0207816
0.0208173
0.0208593
0.0209064
0.0209576
0.0210113
0.0210663
0.0211211
0.0211745
0.0212256
0.0212736
0.0213179
0.0213583
0.0213947
0.0214274
0.0214567
0.021483
0.0215069
0.0215288
0.0215494
0.0215691
0.0215883
0.0216075
0.0216268
0.0216463
0.0216661
0.0216861
0.021706
0.0217256
0.0217445
0.0217626
0.0217795
0.0217951
0.0218094
0.0218224
0.0218343
0.0218453
0.0218556
0.0218654
0.021875
0.0218843
0.0218934
0.0219022
0.0219103
0.0219176
0.0219237
0.0219282
0.0219309
0.0219315
0.0219298
0.0219257
0.0219192
0.0219104
0.0218996
0.0218871
0.0218732
0.0218584
0.0218432
0.0218281
0.0218134
0.0217994
0.0217863
0.0217741
0.0217629
0.0217524
0.0217424
0.0217327
0.021723
0.0217131
0.0217028
0.0216919
0.0216805
0.0216686
0.0216563
0.0216439
0.0216317
0.0216198
0.0216088
0.0215988
0.0215901
0.0215831
0.0215778
0.0215744
0.0215732
0.0215741
0.0215774
0.021583
0.0215912
0.0216018
0.0216149
0.0216302
0.0216476
0.0216667
0.0216873
0.0217088
0.021731
0.0217534
0.0217756
0.0217973
0.0218181
0.0218378
0.021856
0.0218728
0.021888
0.0219016
0.0219138
0.0219249
0.021935
0.0219446
0.0219539
0.0219633
0.0219729
0.0219827
0.0219927
0.0220027
0.0220124
0.0220214
0.0220295
0.0220363
0.0220418
0.0220459
0.0220489
0.0220512
0.0220532
0.0220556
0.0220589
0.0220637
0.0220706
0.0220797
0.0220913
0.0221053
0.0221215
0.0221394
0.0221585
0.0221782
0.0221977
0.0222164
0.0222335
0.0222487
0.0222616
0.022272
0.0222801
0.0222862
0.022291
0.022295
0.022299
0.0223035
0.0223091
0.0223162
0.0223249
0.0223353
0.0223472
0.0223604
0.0223745
0.022389
0.0224034
0.0224168
0.0224287
0.0224383
0.0224451
0.0224486
0.0224485
0.0224447
0.0224373
0.0224264
0.0224125
0.022396
0.0223773
0.0223571
0.0223362
0.022315
0.0222943
0.0222745
0.0222559
0.0222385
0.0222218
0.0222054
0.0221882
0.0221693
0.0221475
0.0221222
0.0220927
0.0220591
0.0220221
0.0219825
0.021942
0.0219023
0.0218652
0.0218324
0.0218053
0.021785
0.0217717
0.0217654
0.0217652
0.0217705
0.02178
0.0217932
0.0218095
0.0218286
0.0218502
0.0218736
0.0218978
0.0219212
0.0219413
0.0219562
0.0219641
0.0219641
0.021956
0.0219412
0.021922
0.0219001
0.0218774
0.0218549
0.0218549
0.04
0.0309453
0.0320531
0.0307234
0.0301363
0.0305339
0.0318229
0.031346
0.029926
0.0297597
0.0305243
0.0303056
0.0294564
0.0291545
0.029222
0.028958
0.0285363
0.0283355
0.0281826
0.0279181
0.0276702
0.0275124
0.0273174
0.0270925
0.0269093
0.0267557
0.0265684
0.0263877
0.0262366
0.026091
0.0259313
0.02579
0.025664
0.0255378
0.0254125
0.0253063
0.0252087
0.0251155
0.0250332
0.0249681
0.0249107
0.0248624
0.0248268
0.024803
0.0247851
0.0247757
0.0247747
0.02478
0.0247892
0.0248041
0.0248236
0.0248466
0.0248726
0.0249024
0.0249357
0.0249727
0.0250128
0.0250572
0.0251064
0.0251601
0.0252178
0.025281
0.0253496
0.0254222
0.0254994
0.0255821
0.025669
0.0257597
0.0258557
0.0259563
0.0260608
0.02617
0.0262844
0.0264024
0.026525
0.0266523
0.0267832
0.0269167
0.0270553
0.0271959
0.0273375
0.0274803
0.0276263
0.0277694
0.0279112
0.0280518
0.0281921
0.0283247
0.028455
0.028581
0.0287043
0.0288172
0.0289282
0.0290315
0.0291314
0.0292188
0.029304
0.029377
0.0294462
0.0294981
0.0295472
0.0295791
0.0296061
0.0296115
0.029616
0.0295977
0.0295764
0.0295317
0.0294895
0.0294195
0.0293528
0.0292605
0.0291744
0.029057
0.0289516
0.0288153
0.0286917
0.0285347
0.0283983
0.0282248
0.0280754
0.0278886
0.0277328
0.0275352
0.0273758
0.0271733
0.0270153
0.0268104
0.0266577
0.026455
0.0263107
0.0261123
0.0259789
0.0257882
0.0256666
0.0254844
0.0253758
0.0252043
0.0251078
0.0249481
0.0248653
0.0247195
0.0246491
0.024519
0.0244614
0.0243466
0.0242999
0.0242019
0.0241662
0.024085
0.0240602
0.0239967
0.0239812
0.0239323
0.0239236
0.0238869
0.0238823
0.0238557
0.0238556
0.0238391
0.0238433
0.0238352
0.0238426
0.0238403
0.0238489
0.0238512
0.0238628
0.0238721
0.0238906
0.0239103
0.0239381
0.0239669
0.0239998
0.0240306
0.0240599
0.0240833
0.0241014
0.0241127
0.0241187
0.0241202
0.02412
0.0241198
0.0241224
0.0241294
0.0241426
0.0241626
0.0241898
0.0242241
0.0242649
0.024311
0.0243613
0.0244144
0.0244688
0.0245232
0.0245764
0.0246274
0.0246752
0.0247196
0.0247601
0.0247968
0.0248298
0.0248595
0.0248863
0.0249107
0.0249332
0.0249543
0.0249745
0.0249942
0.0250136
0.0250331
0.0250526
0.0250723
0.025092
0.0251115
0.0251306
0.025149
0.0251666
0.0251831
0.0251984
0.0252124
0.0252254
0.0252374
0.0252486
0.0252592
0.0252694
0.0252794
0.0252891
0.0252985
0.0253074
0.0253157
0.0253231
0.0253292
0.0253338
0.0253366
0.0253374
0.0253361
0.0253326
0.025327
0.0253193
0.0253098
0.0252988
0.0252866
0.0252737
0.0252604
0.025247
0.0252341
0.0252217
0.02521
0.0251991
0.0251889
0.0251791
0.0251698
0.0251605
0.025151
0.0251412
0.0251308
0.0251199
0.0251083
0.0250962
0.0250836
0.0250709
0.0250583
0.0250462
0.0250348
0.0250247
0.025016
0.025009
0.025004
0.0250011
0.0250004
0.0250021
0.0250062
0.0250129
0.0250222
0.0250341
0.0250485
0.0250651
0.0250837
0.025104
0.0251256
0.0251481
0.025171
0.0251939
0.0252165
0.0252384
0.0252591
0.0252784
0.0252961
0.025312
0.0253261
0.0253385
0.0253494
0.025359
0.0253676
0.0253757
0.0253835
0.0253913
0.0253994
0.0254079
0.0254167
0.0254256
0.0254345
0.0254429
0.0254507
0.0254575
0.0254632
0.0254679
0.0254718
0.0254753
0.0254786
0.0254825
0.0254875
0.0254939
0.0255021
0.0255125
0.025525
0.0255397
0.0255562
0.0255744
0.0255937
0.0256135
0.0256332
0.0256522
0.0256698
0.0256854
0.0256986
0.0257093
0.0257177
0.0257241
0.0257292
0.0257337
0.0257384
0.0257439
0.0257506
0.0257588
0.0257685
0.0257795
0.0257916
0.0258046
0.025818
0.0258315
0.0258446
0.0258568
0.0258676
0.0258761
0.0258819
0.0258842
0.0258829
0.0258777
0.0258688
0.0258565
0.0258414
0.0258242
0.0258053
0.0257855
0.0257653
0.025745
0.025725
0.0257054
0.0256864
0.0256678
0.0256493
0.0256304
0.0256105
0.0255889
0.025565
0.0255381
0.0255081
0.025475
0.0254392
0.0254016
0.0253634
0.0253261
0.0252913
0.0252604
0.0252348
0.0252152
0.025202
0.0251951
0.025194
0.0251979
0.025206
0.0252177
0.0252325
0.02525
0.02527
0.0252917
0.0253141
0.0253355
0.0253542
0.0253678
0.025375
0.025375
0.0253677
0.0253541
0.0253361
0.0253154
0.025294
0.0252729
0.0252729
0.04
0.0289333
0.0294412
0.0307298
0.031565
0.0315218
0.0313301
0.0308708
0.0313333
0.031845
0.0314182
0.030741
0.0308666
0.0310927
0.0307446
0.0302924
0.0302227
0.0301844
0.0299171
0.0296649
0.0295487
0.0294016
0.0291828
0.0290151
0.0288824
0.0287137
0.0285352
0.0283986
0.0282626
0.0281087
0.027966
0.0278464
0.0277198
0.0275916
0.0274786
0.0273773
0.0272739
0.0271805
0.0271023
0.027033
0.0269692
0.0269197
0.0268823
0.0268528
0.0268317
0.0268226
0.0268214
0.0268269
0.0268397
0.0268602
0.0268854
0.0269155
0.0269501
0.0269891
0.0270316
0.0270777
0.0271272
0.0271813
0.0272394
0.027301
0.0273674
0.0274392
0.0275149
0.0275946
0.0276799
0.0277699
0.0278633
0.0279617
0.0280655
0.028173
0.0282851
0.0284025
0.0285243
0.0286501
0.0287812
0.0289162
0.0290548
0.029198
0.0293452
0.0294935
0.0296452
0.0297999
0.029955
0.0301083
0.0302639
0.0304186
0.0305697
0.0307167
0.0308644
0.0310071
0.0311441
0.0312757
0.0314071
0.0315298
0.0316468
0.0317568
0.0318645
0.0319591
0.0320482
0.0321264
0.0321984
0.0322535
0.0323038
0.0323368
0.0323628
0.0323702
0.0323734
0.0323547
0.0323332
0.0322907
0.0322455
0.032177
0.0321109
0.0320187
0.0319296
0.0318152
0.0317078
0.0315699
0.0314448
0.0312891
0.0311483
0.0309743
0.0308239
0.0306364
0.030478
0.0302811
0.0301214
0.0299181
0.0297604
0.0295549
0.0294035
0.0291986
0.029056
0.0288542
0.0287231
0.0285264
0.0284072
0.0282177
0.0281121
0.0279313
0.0278393
0.0276706
0.0275928
0.0274367
0.0273724
0.0272313
0.0271787
0.0270529
0.0270123
0.0269038
0.0268736
0.0267827
0.0267623
0.0266876
0.0266732
0.0266127
0.0266033
0.0265554
0.02655
0.0265147
0.0265137
0.0264889
0.0264907
0.0264742
0.0264775
0.0264677
0.026474
0.0264732
0.0264865
0.0264974
0.0265201
0.0265418
0.0265701
0.0265953
0.0266213
0.0266408
0.0266568
0.0266655
0.0266701
0.0266697
0.0266679
0.0266658
0.0266665
0.0266711
0.0266818
0.0266992
0.026724
0.0267559
0.0267944
0.0268385
0.026887
0.0269385
0.0269916
0.0270448
0.0270969
0.0271469
0.0271939
0.0272375
0.0272774
0.0273136
0.0273462
0.0273756
0.0274022
0.0274265
0.0274489
0.0274699
0.02749
0.0275094
0.0275286
0.0275476
0.0275666
0.0275856
0.0276045
0.0276231
0.0276412
0.0276587
0.0276754
0.027691
0.0277055
0.0277189
0.0277313
0.0277429
0.0277537
0.0277641
0.027774
0.0277837
0.0277931
0.0278021
0.0278107
0.0278186
0.0278255
0.0278312
0.0278356
0.0278383
0.0278391
0.0278382
0.0278353
0.0278305
0.027824
0.0278159
0.0278065
0.0277961
0.0277849
0.0277734
0.0277618
0.0277503
0.0277393
0.0277287
0.0277186
0.0277089
0.0276995
0.0276902
0.0276809
0.0276712
0.0276611
0.0276504
0.027639
0.027627
0.0276144
0.0276014
0.0275881
0.0275751
0.0275625
0.0275508
0.0275403
0.0275313
0.0275241
0.027519
0.0275161
0.0275155
0.0275175
0.0275219
0.0275291
0.0275389
0.0275514
0.0275664
0.0275837
0.0276029
0.0276238
0.0276458
0.0276687
0.0276918
0.0277149
0.0277373
0.0277588
0.0277789
0.0277973
0.0278139
0.0278283
0.0278408
0.0278513
0.0278601
0.0278676
0.027874
0.0278798
0.0278853
0.0278908
0.0278966
0.0279028
0.0279095
0.0279165
0.0279236
0.0279307
0.0279374
0.0279435
0.027949
0.0279537
0.027958
0.0279621
0.0279664
0.0279713
0.0279773
0.0279847
0.0279937
0.0280046
0.0280173
0.0280319
0.0280481
0.0280658
0.0280845
0.0281038
0.028123
0.0281415
0.0281587
0.0281739
0.0281867
0.028197
0.0282049
0.0282109
0.0282157
0.0282201
0.0282248
0.0282305
0.0282375
0.0282459
0.0282557
0.0282665
0.0282779
0.0282897
0.0283016
0.0283133
0.0283245
0.0283347
0.0283435
0.0283501
0.0283539
0.0283544
0.0283511
0.0283438
0.0283329
0.0283188
0.0283022
0.0282839
0.0282646
0.0282449
0.0282251
0.0282053
0.0281855
0.0281657
0.0281457
0.0281252
0.0281041
0.028082
0.0280587
0.0280338
0.0280071
0.0279783
0.0279473
0.0279143
0.0278795
0.0278436
0.0278076
0.0277726
0.0277399
0.0277106
0.0276859
0.0276664
0.0276527
0.0276445
0.0276417
0.0276435
0.0276495
0.027659
0.0276717
0.0276871
0.0277048
0.0277243
0.0277443
0.0277635
0.0277803
0.0277928
0.0277996
0.0277997
0.0277934
0.0277814
0.0277651
0.0277462
0.0277264
0.0277064
0.0277064
0.04
0.0288301
0.0295469
0.0301587
0.0304344
0.0305953
0.0308688
0.031422
0.0318673
0.0313744
0.0311592
0.0316843
0.0319172
0.0314065
0.0311466
0.0313592
0.0313649
0.0310247
0.0308505
0.0308668
0.0307521
0.0305343
0.0304176
0.0303415
0.0301889
0.0300335
0.0299323
0.0298212
0.0296759
0.0295543
0.0294541
0.0293371
0.0292127
0.0291106
0.0290133
0.028908
0.0288105
0.0287301
0.0286516
0.0285763
0.0285147
0.0284652
0.0284194
0.0283829
0.0283594
0.0283447
0.0283364
0.028339
0.0283514
0.0283704
0.0283961
0.0284294
0.0284681
0.0285112
0.0285587
0.0286104
0.028666
0.0287255
0.0287882
0.0288551
0.0289269
0.0290021
0.0290809
0.0291651
0.0292538
0.0293455
0.029442
0.029544
0.0296497
0.0297594
0.0298748
0.0299947
0.0301186
0.0302474
0.030381
0.0305181
0.0306604
0.0308066
0.0309556
0.0311081
0.0312654
0.0314231
0.0315816
0.031743
0.0319058
0.0320646
0.0322228
0.0323818
0.0325381
0.0326877
0.0328366
0.0329831
0.0331246
0.0332589
0.0333914
0.033518
0.0336386
0.0337497
0.0338561
0.0339526
0.0340412
0.034116
0.0341842
0.0342386
0.0342832
0.0343116
0.0343345
0.0343395
0.0343359
0.0343162
0.0342923
0.0342465
0.0341975
0.0341304
0.0340598
0.0339659
0.0338753
0.0337609
0.0336486
0.0335119
0.0333845
0.0332282
0.0330852
0.0329134
0.0327614
0.0325758
0.0324181
0.0322239
0.0320656
0.0318649
0.0317097
0.0315064
0.0313582
0.0311536
0.0310146
0.0308118
0.0306841
0.0304839
0.0303695
0.0301756
0.0300751
0.0298888
0.0298039
0.0296281
0.0295566
0.0293929
0.0293352
0.029185
0.0291389
0.0290051
0.0289707
0.0288532
0.0288278
0.0287275
0.0287089
0.0286234
0.0286096
0.0285395
0.0285299
0.0284739
0.0284684
0.0284256
0.0284223
0.0283896
0.0283879
0.0283645
0.0283657
0.0283532
0.0283616
0.0283626
0.0283801
0.0283932
0.028417
0.0284353
0.0284573
0.0284719
0.0284851
0.0284902
0.0284925
0.0284894
0.0284855
0.0284806
0.0284788
0.0284806
0.0284885
0.0285028
0.0285247
0.0285536
0.0285894
0.0286309
0.0286771
0.0287264
0.0287775
0.0288289
0.0288794
0.0289278
0.0289734
0.0290156
0.0290542
0.0290891
0.0291205
0.0291488
0.0291744
0.0291977
0.0292193
0.0292395
0.0292587
0.0292773
0.0292956
0.0293136
0.0293316
0.0293495
0.0293673
0.0293847
0.0294016
0.0294178
0.0294332
0.0294475
0.0294609
0.0294732
0.0294845
0.029495
0.0295048
0.0295141
0.029523
0.0295316
0.0295399
0.0295478
0.0295553
0.0295622
0.0295682
0.0295731
0.0295768
0.0295791
0.0295798
0.029579
0.0295765
0.0295724
0.0295669
0.0295599
0.0295518
0.0295427
0.0295328
0.0295225
0.029512
0.0295015
0.0294911
0.029481
0.029471
0.0294612
0.0294515
0.0294417
0.0294316
0.0294212
0.0294102
0.0293987
0.0293865
0.0293737
0.0293603
0.0293466
0.0293327
0.029319
0.0293059
0.0292936
0.0292826
0.0292732
0.0292656
0.0292601
0.0292569
0.029256
0.0292578
0.0292621
0.0292692
0.0292791
0.0292917
0.0293068
0.0293242
0.0293436
0.0293646
0.0293867
0.0294094
0.0294324
0.0294551
0.029477
0.0294978
0.0295168
0.0295339
0.0295488
0.0295614
0.0295717
0.0295799
0.0295862
0.0295909
0.0295945
0.0295974
0.0295999
0.0296024
0.0296052
0.0296085
0.0296123
0.0296167
0.0296214
0.0296264
0.0296313
0.0296361
0.0296407
0.029645
0.0296493
0.0296537
0.0296585
0.0296641
0.0296708
0.0296788
0.0296883
0.0296994
0.0297121
0.0297263
0.029742
0.029759
0.0297769
0.0297952
0.0298135
0.0298311
0.0298473
0.0298615
0.0298734
0.0298829
0.02989
0.0298953
0.0298996
0.0299035
0.0299079
0.0299134
0.0299202
0.0299284
0.0299377
0.0299477
0.0299582
0.0299686
0.0299787
0.0299883
0.0299971
0.0300049
0.0300111
0.0300152
0.0300166
0.0300146
0.0300089
0.0299993
0.0299862
0.0299702
0.0299521
0.0299328
0.029913
0.0298932
0.0298736
0.0298541
0.0298344
0.0298141
0.0297929
0.0297704
0.0297465
0.0297211
0.0296941
0.0296657
0.0296359
0.0296048
0.0295726
0.0295394
0.0295054
0.0294712
0.0294373
0.0294046
0.029374
0.0293464
0.0293227
0.0293035
0.0292891
0.0292795
0.0292746
0.0292741
0.0292775
0.0292844
0.0292945
0.0293074
0.0293226
0.0293394
0.0293569
0.0293737
0.0293882
0.029399
0.029405
0.0294051
0.0293994
0.0293886
0.0293737
0.0293564
0.0293381
0.0293195
0.0293195
0.04
0.0295576
0.0301407
0.0298447
0.03026
0.0307604
0.0309733
0.0310403
0.0310632
0.031265
0.0317647
0.0317505
0.0314204
0.0314891
0.0318343
0.0317479
0.0314487
0.0314376
0.0315646
0.0314516
0.0312625
0.0312251
0.0312141
0.0310914
0.0309696
0.0309148
0.0308403
0.0307238
0.030631
0.0305605
0.0304648
0.0303605
0.0302766
0.0301952
0.0300991
0.03001
0.0299345
0.0298581
0.0297801
0.0297147
0.0296576
0.029602
0.0295527
0.0295156
0.0294851
0.0294607
0.0294471
0.0294447
0.0294497
0.0294638
0.0294876
0.029519
0.0295564
0.0296004
0.0296495
0.0297031
0.0297611
0.0298227
0.0298879
0.0299576
0.0300309
0.030107
0.0301877
0.0302731
0.0303611
0.0304532
0.0305508
0.0306522
0.0307569
0.0308671
0.0309825
0.0311012
0.0312248
0.0313535
0.0314863
0.0316235
0.0317656
0.0319109
0.0320607
0.032215
0.0323718
0.03253
0.0326928
0.0328572
0.0330201
0.033183
0.0333488
0.0335119
0.0336708
0.0338286
0.0339872
0.03414
0.0342875
0.0344331
0.0345772
0.0347126
0.0348421
0.0349674