# vtk DataFile Version 3.0
LBM output step 1690
ASCII
DATASET STRUCTURED_POINTS
DIMENSIONS 400 100 1
ORIGIN 0 0 0
SPACING 1 1 1
POINT_DATA 40000
SCALARS velocity_magnitude double 1
LOOKUP_TABLE default
0
0
0
0
0
0
0
0
0
0
0
0
0
0
0
0
0
0
0
0
0
0
0
0
0
0
0
0
0
0
0
0
0
0
0
0
0
0
0
0
0
0
0
0
0
0
0
0
0
0
0
0
0
0
0
0
0
0
0
0
0
0
0
0
0
0
0
0
0
0
0
0
0
0
0
0
0
0
0
0
0
0
0
0
0
0
0
0
0
0
0
0
0
0
0
0
0
0
0
0
0
0
0
0
0
0
0
0
0
0
0
0
0
0
0
0
0
0
0
0
0
0
0
0
0
0
0
0
0
0
0
0
0
0
0
0
0
0
0
0
0
0
0
0
0
0
0
0
0
0
0
0
0
0
0
0
0
0
0
0
0
0
0
0
0
0
0
0
0
0
0
0
0
0
0
0
0
0
0
0
0
0
0
0
0
0
0
0
0
0
0
0
0
0
0
0
0
0
0
0
0
0
0
0
0
0
0
0
0
0
0
0
0
0
0
0
0
0
0
0
0
0
0
0
0
0
0
0
0
0
0
0
0
0
0
0
0
0
0
0
0
0
0
0
0
0
0
0
0
0
0
0
0
0
0
0
0
0
0
0
0
0
0
0
0
0
0
0
0
0
0
0
0
0
0
0
0
0
0
0
0
0
0
0
0
0
0
0
0
0
0
0
0
0
0
0
0
0
0
0
0
0
0
0
0
0
0
0
0
0
0
0
0
0
0
0
0
0
0
0
0
0
0
0
0
0
0
0
0
0
0
0
0
0
0
0
0
0
0
0
0
0
0
0
0
0
0
0
0
0
0
0
0
0
0
0
0
0
0
0
0
0
0
0
0
0
0
0
0
0
0
0
0
0
0
0
0
0
0
0
0
0
0
0
0
0
0
0
0
0
0
0
0
0
0
0
0
0
0
0
0.04
0.0178281
0.011659
0.0143658
0.0175607
0.0175655
0.0141772
0.0128826
0.0127135
0.0127568
0.012361
0.0122741
0.0119529
0.0117319
0.0115767
0.0115677
0.0114023
0.0112784
0.0111757
0.0111133
0.0109915
0.0109144
0.0108344
0.0107572
0.0106576
0.0105879
0.0105072
0.010425
0.0103364
0.0102639
0.0101813
0.0101021
0.0100248
0.0099572
0.00988521
0.00982032
0.00975878
0.00970196
0.00964256
0.0095876
0.0095319
0.00947585
0.00941652
0.0093581
0.00929679
0.00923429
0.00916992
0.00910624
0.00904132
0.00897733
0.00891417
0.00885365
0.00879504
0.00873994
0.00868816
0.00864052
0.0085959
0.00855457
0.00851582
0.00847934
0.008444
0.00841016
0.00837777
0.0083467
0.00831733
0.0082904
0.00826613
0.00824423
0.00822556
0.00820934
0.00819545
0.00818303
0.00817291
0.00816279
0.00815392
0.00814516
0.00813778
0.00812877
0.00812164
0.00811359
0.00810661
0.00809687
0.00808982
0.00807996
0.00807123
0.00805877
0.00804988
0.00803621
0.00802475
0.00800851
0.00799661
0.00797777
0.00796225
0.00793967
0.00792133
0.00789283
0.00786798
0.00783254
0.00780097
0.0077562
0.00771616
0.00766265
0.00761422
0.00755126
0.00749549
0.00742492
0.00736273
0.0072862
0.00722027
0.00713969
0.00707144
0.00698913
0.00692038
0.00683738
0.00676942
0.00668727
0.00662043
0.00653947
0.00647418
0.0063946
0.00633085
0.00625423
0.006194
0.00612223
0.00606729
0.00600236
0.00595263
0.00589313
0.00584763
0.00579333
0.00575124
0.00570259
0.0056658
0.0056233
0.00559008
0.00555197
0.00552035
0.00548349
0.00545222
0.00541877
0.00539126
0.00536421
0.0053441
0.00532555
0.00531139
0.00529767
0.00528654
0.00527512
0.00526574
0.00525847
0.00525542
0.00525615
0.00526144
0.00526998
0.00527992
0.00528844
0.00529363
0.00529358
0.00528723
0.00527483
0.00525791
0.00523846
0.00521886
0.00520185
0.0051898
0.00518443
0.00518684
0.0051977
0.00521693
0.00524387
0.00527761
0.005317
0.00536067
0.00540718
0.00545523
0.00550357
0.00555106
0.00559679
0.00564009
0.00568046
0.00571761
0.0057515
0.00578224
0.00581007
0.00583532
0.00585842
0.00587975
0.00589968
0.00591848
0.00593637
0.0059534
0.00596955
0.0059847
0.00599868
0.00601125
0.00602222
0.00603141
0.00603871
0.00604411
0.00604767
0.00604958
0.0060501
0.00604953
0.00604823
0.00604656
0.0060448
0.00604319
0.00604188
0.00604091
0.00604024
0.00603975
0.00603927
0.00603862
0.00603759
0.00603603
0.0060338
0.00603083
0.00602708
0.00602257
0.00601737
0.00601159
0.00600539
0.00599894
0.00599243
0.00598606
0.00597996
0.00597423
0.00596889
0.00596386
0.00595897
0.00595401
0.00594867
0.00594265
0.00593565
0.00592742
0.00591779
0.00590673
0.00589432
0.00588079
0.00586644
0.00585166
0.00583683
0.00582233
0.00580848
0.00579559
0.00578389
0.00577362
0.00576498
0.00575819
0.00575347
0.00575105
0.00575118
0.00575411
0.00576012
0.00576946
0.00578237
0.00579901
0.00581942
0.00584351
0.00587099
0.00590145
0.00593427
0.00596873
0.00600405
0.00603936
0.00607386
0.00610674
0.00613728
0.00616488
0.00618905
0.00620945
0.00622592
0.00623851
0.00624742
0.00625306
0.00625594
0.00625668
0.0062559
0.00625412
0.00625175
0.006249
0.00624589
0.00624225
0.00623778
0.00623214
0.00622504
0.00621634
0.00620609
0.00619457
0.00618231
0.00616999
0.00615841
0.00614838
0.00614064
0.00613575
0.00613411
0.00613585
0.0061409
0.00614895
0.00615956
0.00617213
0.00618597
0.00620035
0.00621449
0.00622762
0.00623902
0.00624806
0.00625429
0.00625752
0.0062579
0.00625595
0.00625248
0.00624855
0.00624527
0.00624369
0.00624459
0.00624839
0.00625512
0.00626439
0.00627552
0.00628763
0.00629975
0.00631099
0.00632053
0.00632772
0.00633199
0.00633286
0.00632991
0.00632279
0.00631128
0.00629532
0.00627511
0.0062512
0.00622446
0.0061961
0.00616753
0.00614017
0.00611525
0.00609353
0.00607519
0.00605977
0.00604625
0.00603317
0.0060189
0.00600182
0.00598055
0.00595416
0.00592231
0.00588542
0.00584461
0.00580164
0.00575873
0.00571828
0.0056827
0.00565411
0.00563424
0.00562426
0.00562466
0.00563518
0.00565473
0.0056815
0.00571317
0.00574728
0.00578162
0.00581456
0.00584517
0.00587312
0.00589835
0.0059206
0.00593916
0.00595278
0.00595992
0.00595921
0.00594996
0.00593258
0.00590864
0.00588056
0.00585109
0.00582266
0.0057968
0.00577383
0.00575291
0.00573228
0.00570989
0.00568381
0.00565288
0.00561685
0.00557662
0.0055339
0.00549121
0.00545119
0.00541662
0.00538974
0.00537265
0.00536652
0.00537194
0.00538755
0.0054171
0.00545984
0.00545984
0.04
0.0278611
0.0303792
0.0279632
0.0201917
0.0181955
0.0210089
0.0218855
0.0200806
0.0189707
0.0188071
0.0185761
0.0181564
0.0179946
0.017768
0.0174461
0.0172153
0.0171269
0.0169519
0.0167517
0.0166117
0.0165067
0.0163553
0.0162221
0.0161176
0.0160087
0.0158807
0.0157748
0.0156772
0.0155712
0.0154642
0.0153743
0.0152863
0.0151977
0.0151178
0.01505
0.0149837
0.0149216
0.0148677
0.0148187
0.0147691
0.0147221
0.0146777
0.0146327
0.0145859
0.0145398
0.0144936
0.0144462
0.0143983
0.0143519
0.0143065
0.0142627
0.0142218
0.0141851
0.0141525
0.0141242
0.0141009
0.0140824
0.014068
0.014057
0.0140499
0.014046
0.0140448
0.0140471
0.0140536
0.0140631
0.0140772
0.0140961
0.0141193
0.0141456
0.0141772
0.0142119
0.014249
0.0142879
0.0143315
0.0143747
0.0144195
0.0144658
0.0145156
0.0145619
0.0146109
0.0146593
0.0147096
0.0147532
0.0148006
0.0148438
0.0148877
0.0149225
0.0149622
0.0149932
0.015025
0.0150451
0.0150704
0.0150814
0.0150939
0.0150906
0.0150917
0.0150724
0.0150564
0.0150194
0.014987
0.0149304
0.0148804
0.0148049
0.014738
0.0146451
0.0145633
0.0144544
0.0143611
0.0142401
0.0141364
0.014006
0.0138972
0.013759
0.0136453
0.0135046
0.0133891
0.0132442
0.0131293
0.0129855
0.0128704
0.0127285
0.0126198
0.0124838
0.012381
0.0122548
0.0121615
0.0120436
0.0119578
0.0118507
0.0117733
0.0116764
0.011609
0.011525
0.0114659
0.0113918
0.0113395
0.0112738
0.0112263
0.0111698
0.0111312
0.0110872
0.0110593
0.011029
0.0110112
0.0109903
0.0109781
0.0109641
0.0109572
0.0109506
0.0109521
0.0109569
0.0109686
0.0109824
0.0109995
0.0110148
0.0110276
0.0110347
0.0110367
0.0110328
0.011025
0.0110152
0.0110064
0.0110008
0.0110008
0.0110084
0.0110245
0.0110495
0.0110832
0.0111249
0.0111735
0.0112275
0.0112855
0.011346
0.0114075
0.0114686
0.0115281
0.0115851
0.0116388
0.0116888
0.0117348
0.0117767
0.0118148
0.0118494
0.0118809
0.0119097
0.0119364
0.0119613
0.0119847
0.012007
0.0120282
0.0120483
0.0120671
0.0120845
0.0121003
0.0121142
0.0121259
0.0121355
0.0121429
0.0121481
0.0121513
0.0121529
0.0121531
0.0121523
0.0121509
0.0121492
0.0121475
0.012146
0.0121448
0.0121436
0.0121426
0.0121414
0.0121399
0.0121379
0.0121352
0.0121316
0.0121271
0.0121217
0.0121154
0.0121083
0.0121006
0.0120924
0.0120841
0.0120758
0.0120678
0.0120602
0.0120533
0.012047
0.0120414
0.0120362
0.0120313
0.0120264
0.0120211
0.0120152
0.0120083
0.0120004
0.0119913
0.0119813
0.0119703
0.0119589
0.0119473
0.011936
0.0119254
0.0119156
0.0119072
0.0119003
0.0118951
0.0118919
0.0118908
0.011892
0.0118958
0.0119024
0.0119119
0.0119246
0.0119407
0.0119604
0.0119836
0.0120105
0.0120407
0.0120739
0.0121097
0.0121473
0.012186
0.0122251
0.0122635
0.0123006
0.0123355
0.0123676
0.0123962
0.0124209
0.0124415
0.0124577
0.0124697
0.0124778
0.0124824
0.0124841
0.0124836
0.0124814
0.0124781
0.0124742
0.0124699
0.0124652
0.01246
0.0124542
0.0124474
0.0124394
0.0124301
0.0124197
0.0124085
0.012397
0.0123858
0.0123757
0.0123675
0.0123617
0.012359
0.0123596
0.0123637
0.012371
0.0123813
0.0123939
0.0124083
0.0124236
0.012439
0.0124538
0.0124672
0.0124784
0.0124869
0.0124924
0.0124949
0.0124946
0.012492
0.0124881
0.0124838
0.0124803
0.0124784
0.0124788
0.0124819
0.0124877
0.0124956
0.0125052
0.0125154
0.0125253
0.0125341
0.0125408
0.0125447
0.0125453
0.0125421
0.0125347
0.0125228
0.0125064
0.0124855
0.0124606
0.0124322
0.0124013
0.0123691
0.0123369
0.0123062
0.0122779
0.0122526
0.0122307
0.0122114
0.0121938
0.0121767
0.0121583
0.0121372
0.0121123
0.0120827
0.0120483
0.0120096
0.0119678
0.0119247
0.0118827
0.011844
0.0118111
0.0117859
0.0117702
0.0117648
0.0117702
0.0117858
0.0118104
0.011842
0.0118781
0.0119162
0.011954
0.0119898
0.0120228
0.0120524
0.0120784
0.0121007
0.0121185
0.0121306
0.0121356
0.0121323
0.0121203
0.0121002
0.0120737
0.0120434
0.012012
0.011982
0.011955
0.0119313
0.0119099
0.0118894
0.0118676
0.0118429
0.0118141
0.0117812
0.0117451
0.0117076
0.0116713
0.0116387
0.0116125
0.0115949
0.0115872
0.0115905
0.0116058
0.011633
0.0116698
0.0117135
0.0117135
0.04
0.0280397
0.0266896
0.0242541
0.0253428
0.0273695
0.0264622
0.0245411
0.0244344
0.0248763
0.0242965
0.0234912
0.0231754
0.023005
0.0226228
0.0223248
0.0221231
0.0218874
0.021618
0.0214485
0.0212881
0.0210955
0.0209123
0.0207809
0.0206357
0.0204822
0.0203458
0.0202277
0.0200961
0.0199703
0.019859
0.0197542
0.0196461
0.0195513
0.0194683
0.0193904
0.0193174
0.0192574
0.0192041
0.0191545
0.01911
0.0190725
0.0190366
0.0190021
0.0189704
0.0189409
0.018911
0.0188819
0.0188543
0.0188279
0.0188023
0.0187792
0.0187595
0.0187435
0.0187316
0.0187248
0.0187237
0.0187277
0.0187363
0.0187501
0.018769
0.0187916
0.0188186
0.0188509
0.0188879
0.0189291
0.0189766
0.0190295
0.019087
0.0191493
0.0192176
0.0192889
0.0193639
0.0194428
0.0195254
0.0196084
0.0196956
0.0197848
0.0198758
0.0199657
0.0200604
0.0201529
0.0202458
0.0203356
0.0204294
0.020516
0.0206028
0.020684
0.0207677
0.0208397
0.0209129
0.0209759
0.0210404
0.0210882
0.0211376
0.0211703
0.0212039
0.0212147
0.0212276
0.0212173
0.0212084
0.0211717
0.0211402
0.0210799
0.0210247
0.0209393
0.0208649
0.0207577
0.0206634
0.0205379
0.0204301
0.0202869
0.0201666
0.0200123
0.0198826
0.0197165
0.019582
0.0194092
0.0192692
0.0190919
0.0189524
0.018773
0.0186359
0.0184612
0.0183311
0.0181624
0.0180415
0.0178823
0.0177701
0.0176205
0.0175192
0.0173821
0.017292
0.0171691
0.017091
0.0169811
0.0169118
0.016814
0.0167533
0.0166682
0.016618
0.0165494
0.0165122
0.0164599
0.0164339
0.0163949
0.0163762
0.0163468
0.0163345
0.0163161
0.016313
0.0163078
0.0163159
0.0163226
0.0163369
0.0163471
0.0163588
0.0163631
0.0163648
0.0163596
0.0163524
0.0163421
0.0163336
0.0163276
0.0163278
0.0163347
0.0163505
0.0163748
0.0164081
0.0164491
0.0164972
0.0165507
0.0166084
0.0166686
0.0167298
0.0167907
0.0168501
0.0169069
0.0169606
0.0170105
0.0170564
0.0170983
0.0171364
0.017171
0.0172024
0.0172312
0.0172579
0.0172827
0.0173062
0.0173284
0.0173496
0.0173696
0.0173886
0.0174061
0.0174221
0.0174364
0.0174486
0.0174588
0.0174669
0.017473
0.0174772
0.0174797
0.017481
0.0174814
0.0174812
0.0174807
0.0174803
0.0174801
0.0174801
0.0174803
0.0174806
0.0174808
0.0174806
0.0174798
0.0174783
0.017476
0.0174727
0.0174684
0.0174631
0.017457
0.0174502
0.0174428
0.0174352
0.0174275
0.0174201
0.0174132
0.0174068
0.0174012
0.0173963
0.017392
0.0173881
0.0173844
0.0173805
0.0173762
0.0173712
0.0173654
0.0173587
0.0173511
0.0173429
0.0173341
0.0173253
0.0173166
0.0173084
0.0173011
0.0172948
0.0172897
0.0172862
0.0172843
0.0172842
0.0172862
0.0172904
0.0172971
0.0173065
0.0173189
0.0173344
0.0173533
0.0173756
0.0174014
0.0174303
0.0174622
0.0174965
0.0175327
0.01757
0.0176077
0.0176449
0.0176808
0.0177147
0.0177459
0.0177737
0.0177979
0.0178181
0.0178342
0.0178464
0.0178549
0.0178601
0.0178625
0.0178628
0.0178615
0.0178591
0.0178561
0.0178525
0.0178486
0.0178442
0.0178392
0.0178333
0.0178264
0.0178185
0.0178095
0.0177998
0.0177898
0.01778
0.0177712
0.0177638
0.0177586
0.0177561
0.0177566
0.0177603
0.0177673
0.0177771
0.0177895
0.0178036
0.0178188
0.0178341
0.0178488
0.017862
0.017873
0.0178814
0.017887
0.0178897
0.01789
0.0178883
0.0178856
0.0178825
0.0178801
0.017879
0.01788
0.0178832
0.0178889
0.0178966
0.017906
0.0179162
0.0179264
0.0179358
0.0179433
0.0179483
0.0179499
0.0179477
0.0179413
0.0179305
0.0179154
0.0178962
0.0178734
0.0178476
0.0178198
0.017791
0.0177623
0.0177347
0.0177091
0.017686
0.0176654
0.0176471
0.0176302
0.0176135
0.0175959
0.0175761
0.017553
0.0175259
0.0174946
0.0174596
0.0174219
0.017383
0.0173449
0.0173098
0.0172799
0.0172571
0.017243
0.0172386
0.0172444
0.0172599
0.017284
0.017315
0.0173506
0.0173885
0.0174266
0.0174632
0.0174974
0.0175287
0.0175569
0.0175816
0.017602
0.0176172
0.0176257
0.0176265
0.017619
0.0176038
0.0175824
0.0175572
0.0175308
0.0175054
0.0174827
0.0174629
0.0174454
0.0174286
0.0174106
0.0173898
0.017365
0.0173362
0.017304
0.0172702
0.017237
0.017207
0.0171825
0.0171659
0.0171589
0.0171616
0.0171746
0.0171986
0.0172309
0.017271
0.017271
0.04
0.0297322
0.0310751
0.0314695
0.0315841
0.0292097
0.0275459
0.0284785
0.0293344
0.0282149
0.02712
0.0271657
0.0271913
0.0266398
0.026169
0.0260417
0.025814
0.0254845
0.0252611
0.0251128
0.024878
0.0246623
0.0245128
0.0243639
0.0241737
0.0240204
0.0238913
0.0237495
0.0235987
0.0234773
0.0233602
0.0232379
0.0231241
0.023031
0.0229391
0.0228521
0.0227786
0.0227179
0.0226587
0.0226078
0.022567
0.0225321
0.0224993
0.0224738
0.0224534
0.0224356
0.0224197
0.022408
0.022398
0.0223894
0.0223825
0.0223785
0.0223771
0.022379
0.0223848
0.022396
0.0224125
0.0224339
0.0224605
0.0224935
0.0225313
0.0225738
0.0226222
0.0226764
0.0227353
0.0228
0.0228713
0.0229478
0.0230296
0.0231174
0.0232102
0.0233067
0.0234084
0.0235139
0.0236224
0.0237341
0.0238507
0.023968
0.024088
0.0242107
0.0243363
0.0244589
0.0245843
0.0247094
0.0248344
0.0249532
0.0250751
0.0251922
0.0253073
0.0254134
0.0255225
0.0256209
0.0257165
0.0257994
0.0258837
0.0259501
0.0260139
0.0260594
0.0261039
0.0261241
0.0261435
0.0261379
0.0261317
0.0260975
0.026066
0.0260041
0.0259476
0.0258607
0.025782
0.0256707
0.0255738
0.0254424
0.0253275
0.0251784
0.0250518
0.0248857
0.0247475
0.0245708
0.0244245
0.0242359
0.0240866
0.0238933
0.0237425
0.0235478
0.0234032
0.023211
0.0230728
0.0228866
0.0227578
0.0225782
0.0224595
0.0222909
0.0221848
0.0220284
0.0219348
0.0217919
0.0217092
0.0215784
0.0215058
0.0213897
0.021329
0.0212298
0.0211828
0.0211022
0.0210665
0.0210007
0.0209735
0.0209203
0.0208994
0.0208595
0.0208488
0.0208245
0.0208246
0.0208147
0.0208219
0.0208179
0.0208228
0.0208158
0.0208118
0.0207971
0.0207846
0.0207666
0.0207532
0.0207404
0.020736
0.0207373
0.0207488
0.0207684
0.0207982
0.0208357
0.0208811
0.0209322
0.0209881
0.0210466
0.0211066
0.0211665
0.0212252
0.0212813
0.0213345
0.0213839
0.0214294
0.0214709
0.0215087
0.0215429
0.0215741
0.0216026
0.0216291
0.0216538
0.0216771
0.0216993
0.0217204
0.0217406
0.0217597
0.0217775
0.0217938
0.0218085
0.0218213
0.0218322
0.021841
0.0218479
0.0218529
0.0218564
0.0218586
0.0218599
0.0218607
0.0218613
0.021862
0.0218628
0.0218639
0.0218652
0.0218665
0.0218677
0.0218685
0.0218687
0.0218682
0.0218666
0.0218639
0.0218602
0.0218553
0.0218495
0.0218427
0.0218353
0.0218274
0.0218195
0.0218116
0.0218042
0.0217973
0.0217913
0.021786
0.0217815
0.0217775
0.0217739
0.0217704
0.0217668
0.0217627
0.021758
0.0217527
0.0217467
0.0217402
0.0217334
0.0217264
0.0217196
0.0217132
0.0217075
0.0217027
0.0216991
0.0216967
0.0216957
0.0216964
0.0216989
0.0217034
0.0217102
0.0217196
0.0217319
0.0217472
0.0217657
0.0217877
0.0218129
0.0218413
0.0218726
0.0219063
0.0219418
0.0219785
0.0220155
0.0220521
0.0220875
0.022121
0.0221518
0.0221794
0.0222034
0.0222235
0.0222398
0.0222522
0.0222611
0.0222668
0.0222699
0.0222708
0.0222702
0.0222684
0.0222659
0.0222628
0.0222592
0.0222552
0.0222506
0.0222454
0.0222394
0.0222325
0.022225
0.0222168
0.0222084
0.0222003
0.0221928
0.0221867
0.0221824
0.0221805
0.0221814
0.0221855
0.0221927
0.0222028
0.0222155
0.0222302
0.0222459
0.0222619
0.0222771
0.0222908
0.0223024
0.0223114
0.0223178
0.0223216
0.0223234
0.0223237
0.0223231
0.0223224
0.0223224
0.0223235
0.0223263
0.022331
0.0223378
0.0223464
0.0223567
0.0223679
0.0223793
0.02239
0.0223991
0.0224055
0.0224085
0.0224075
0.0224022
0.0223923
0.0223782
0.0223603
0.0223392
0.0223156
0.0222904
0.0222645
0.0222386
0.0222135
0.0221898
0.0221676
0.0221471
0.0221281
0.0221098
0.0220916
0.0220725
0.0220516
0.0220281
0.0220013
0.0219713
0.0219382
0.021903
0.021867
0.0218318
0.0217994
0.0217718
0.0217509
0.0217381
0.0217344
0.0217403
0.0217555
0.021779
0.0218092
0.0218441
0.0218815
0.0219194
0.0219562
0.021991
0.0220232
0.0220523
0.0220779
0.0220993
0.0221155
0.0221251
0.0221273
0.0221215
0.0221082
0.0220888
0.0220654
0.0220405
0.0220162
0.0219939
0.021974
0.0219561
0.0219388
0.0219204
0.0218992
0.0218742
0.0218453
0.0218132
0.0217794
0.021746
0.0217156
0.0216905
0.0216725
0.0216636
0.0216649
0.0216761
0.021697
0.0217261
0.0217632
0.0217632
0.04
0.0309498
0.0320206
0.030662
0.0300534
0.0304007
0.0316486
0.0311516
0.0296909
0.029503
0.0302458
0.0300136
0.0291532
0.0288616
0.0289394
0.0286891
0.0282826
0.0281029
0.027969
0.0277264
0.0275028
0.0273714
0.0272032
0.0270077
0.0268547
0.0267309
0.0265727
0.0264203
0.0262956
0.0261747
0.0260388
0.0259209
0.0258181
0.0257156
0.0256146
0.0255325
0.0254581
0.0253865
0.025323
0.0252732
0.0252274
0.0251871
0.0251561
0.0251343
0.0251161
0.0251047
0.0251001
0.0251001
0.0251022
0.0251084
0.0251171
0.0251281
0.0251412
0.0251577
0.0251777
0.0252023
0.025231
0.025265
0.0253048
0.02535
0.0253999
0.025456
0.0255182
0.0255853
0.025658
0.0257376
0.0258229
0.0259131
0.0260097
0.0261119
0.0262185
0.02633
0.0264467
0.0265666
0.0266909
0.0268196
0.0269515
0.0270857
0.0272251
0.0273663
0.0275084
0.0276519
0.0277993
0.0279438
0.0280878
0.0282315
0.0283765
0.0285143
0.0286517
0.0287857
0.0289183
0.0290402
0.0291614
0.0292737
0.0293826
0.0294762
0.0295675
0.0296433
0.029714
0.0297638
0.0298105
0.0298355
0.0298554
0.0298499
0.0298441
0.0298117
0.0297778
0.0297173
0.0296619
0.0295755
0.0294958
0.0293879
0.0292905
0.0291586
0.029044
0.0288954
0.0287651
0.0285975
0.0284575
0.0282761
0.028126
0.0279344
0.0277825
0.0275839
0.0274325
0.0272331
0.0270868
0.0268872
0.026748
0.0265524
0.0264227
0.026233
0.0261155
0.0259358
0.0258309
0.0256612
0.0255685
0.0254103
0.0253286
0.0251835
0.0251152
0.0249869
0.0249319
0.0248214
0.0247788
0.0246839
0.024649
0.0245684
0.0245412
0.0244757
0.0244579
0.0244109
0.0244043
0.0243732
0.0243736
0.0243518
0.0243502
0.0243276
0.0243179
0.0242907
0.0242727
0.024244
0.0242255
0.0242038
0.0241941
0.0241876
0.0241945
0.0242076
0.024233
0.0242652
0.0243071
0.0243539
0.0244068
0.0244622
0.0245199
0.0245772
0.0246338
0.0246879
0.0247392
0.0247868
0.0248307
0.0248706
0.0249069
0.0249396
0.0249695
0.0249968
0.025022
0.0250457
0.025068
0.0250894
0.0251098
0.0251293
0.0251478
0.0251652
0.0251812
0.0251957
0.0252084
0.0252193
0.0252283
0.0252353
0.0252406
0.0252444
0.0252471
0.0252488
0.0252501
0.0252512
0.0252524
0.0252537
0.0252554
0.0252572
0.0252591
0.0252609
0.0252622
0.0252628
0.0252626
0.0252614
0.025259
0.0252553
0.0252505
0.0252446
0.0252376
0.0252299
0.0252216
0.0252131
0.0252046
0.0251965
0.025189
0.0251823
0.0251765
0.0251716
0.0251675
0.0251639
0.0251608
0.0251577
0.0251546
0.0251513
0.0251476
0.0251436
0.0251393
0.0251347
0.0251302
0.0251258
0.0251218
0.0251184
0.0251158
0.025114
0.0251133
0.0251138
0.0251156
0.0251189
0.0251239
0.0251311
0.0251405
0.0251526
0.0251675
0.0251855
0.0252067
0.025231
0.0252583
0.0252883
0.0253206
0.0253547
0.0253898
0.0254253
0.0254605
0.0254944
0.0255265
0.0255559
0.0255823
0.0256052
0.0256245
0.0256399
0.0256518
0.0256604
0.025666
0.025669
0.0256701
0.0256696
0.025668
0.0256655
0.0256625
0.0256591
0.0256553
0.0256512
0.0256466
0.0256414
0.0256358
0.0256297
0.0256231
0.0256164
0.0256099
0.0256039
0.0255989
0.0255955
0.0255942
0.0255955
0.0255996
0.0256068
0.0256168
0.0256294
0.025644
0.0256597
0.0256755
0.0256906
0.0257042
0.0257157
0.0257247
0.0257313
0.0257358
0.0257385
0.0257401
0.0257412
0.0257424
0.025744
0.0257467
0.0257506
0.0257561
0.0257632
0.0257719
0.0257821
0.0257933
0.0258047
0.0258156
0.0258249
0.0258316
0.0258348
0.0258339
0.0258285
0.0258187
0.0258048
0.0257874
0.0257673
0.0257453
0.0257222
0.0256986
0.0256749
0.0256517
0.0256291
0.0256071
0.0255858
0.025565
0.0255444
0.0255235
0.0255019
0.0254788
0.0254539
0.0254267
0.0253971
0.0253655
0.0253324
0.0252989
0.0252664
0.0252365
0.0252109
0.0251913
0.0251792
0.0251753
0.0251803
0.0251939
0.0252152
0.0252428
0.025275
0.0253097
0.0253453
0.0253803
0.0254136
0.0254445
0.0254727
0.0254974
0.025518
0.0255334
0.0255426
0.0255447
0.0255393
0.0255269
0.0255087
0.0254866
0.0254627
0.025439
0.0254169
0.0253968
0.0253782
0.02536
0.0253408
0.025319
0.0252937
0.0252647
0.0252327
0.0251991
0.0251658
0.0251351
0.0251096
0.0250909
0.0250804
0.0250795
0.0250884
0.0251071
0.0251345
0.0251697
0.0251697
0.04
0.0289338
0.0293699
0.0306655
0.0314716
0.0313799
0.0311594
0.030669
0.0311051
0.0316014
0.0311468
0.0304512
0.0305713
0.0308031
0.0304592
0.0300221
0.0299704
0.0299504
0.0297013
0.0294727
0.0293802
0.0292574
0.0290649
0.0289255
0.0288202
0.0286786
0.028527
0.0284155
0.0283026
0.028171
0.0280499
0.0279514
0.0278463
0.0277404
0.02765
0.0275707
0.0274883
0.0274137
0.0273511
0.0272939
0.0272388
0.027195
0.0271608
0.027133
0.0271128
0.0271041
0.0271025
0.0271069
0.0271173
0.0271331
0.0271517
0.0271731
0.0271971
0.0272241
0.0272541
0.0272877
0.027325
0.0273676
0.0274153
0.0274673
0.0275249
0.0275891
0.0276581
0.0277322
0.0278132
0.0279001
0.0279917
0.0280893
0.0281932
0.0283014
0.0284145
0.0285331
0.0286559
0.0287827
0.0289148
0.0290505
0.0291898
0.0293338
0.0294819
0.0296309
0.0297837
0.0299398
0.0300963
0.0302511
0.0304093
0.0305672
0.0307224
0.0308743
0.0310288
0.0311786
0.0313238
0.031464
0.0316047
0.0317353
0.03186
0.0319764
0.0320894
0.0321861
0.0322767
0.0323534
0.0324224
0.032471
0.0325144
0.0325373
0.0325527
0.0325468
0.0325377
0.0325039
0.0324691
0.0324113
0.0323536
0.0322699
0.0321925
0.0320867
0.031988
0.0318612
0.0317469
0.0315983
0.0314683
0.0313041
0.0311622
0.030982
0.0308344
0.0306449
0.0304938
0.0302976
0.0301493
0.0299492
0.0298049
0.0296041
0.0294681
0.0292692
0.0291437
0.0289502
0.0288375
0.0286507
0.0285498
0.0283713
0.0282833
0.0281152
0.0280403
0.0278869
0.0278262
0.0276881
0.0276393
0.0275167
0.0274764
0.0273675
0.0273351
0.0272431
0.02722
0.0271471
0.0271353
0.027081
0.0270754
0.0270326
0.027026
0.0269856
0.0269706
0.0269284
0.0269057
0.0268639
0.0268401
0.0268071
0.0267921
0.0267755
0.0267766
0.0267812
0.0268013
0.0268262
0.0268633
0.0269043
0.026953
0.0270035
0.0270576
0.027111
0.0271644
0.0272152
0.0272637
0.0273083
0.0273496
0.0273868
0.0274207
0.0274511
0.0274788
0.027504
0.0275273
0.027549
0.0275697
0.0275894
0.0276083
0.0276264
0.0276436
0.0276598
0.0276748
0.0276884
0.0277004
0.0277106
0.027719
0.0277257
0.0277307
0.0277343
0.0277367
0.0277384
0.0277396
0.0277406
0.0277417
0.0277431
0.0277447
0.0277464
0.0277483
0.0277499
0.0277511
0.0277516
0.0277513
0.0277499
0.0277474
0.0277436
0.0277385
0.0277323
0.027725
0.0277168
0.027708
0.0276988
0.0276896
0.0276806
0.0276722
0.0276647
0.027658
0.0276524
0.0276476
0.0276437
0.0276403
0.0276374
0.0276348
0.0276323
0.0276298
0.0276272
0.0276246
0.027622
0.0276195
0.0276173
0.0276153
0.0276138
0.0276129
0.0276127
0.0276133
0.0276147
0.0276171
0.0276207
0.0276258
0.0276326
0.0276414
0.0276526
0.0276664
0.027683
0.0277026
0.0277251
0.0277505
0.0277784
0.0278085
0.0278402
0.027873
0.0279062
0.027939
0.0279707
0.0280006
0.028028
0.0280525
0.0280736
0.0280912
0.0281053
0.028116
0.0281237
0.0281285
0.028131
0.0281316
0.0281306
0.0281286
0.0281257
0.0281223
0.0281186
0.0281147
0.0281106
0.0281064
0.0281019
0.0280972
0.0280922
0.0280869
0.0280815
0.0280761
0.0280711
0.0280668
0.0280637
0.0280624
0.0280633
0.0280668
0.0280732
0.0280824
0.028094
0.0281076
0.0281223
0.0281372
0.0281514
0.0281641
0.0281748
0.0281833
0.0281896
0.0281942
0.0281974
0.0281998
0.0282019
0.0282042
0.0282069
0.0282103
0.0282146
0.0282201
0.0282269
0.0282351
0.0282445
0.0282548
0.0282655
0.0282758
0.0282845
0.0282907
0.0282934
0.028292
0.0282861
0.0282759
0.0282619
0.0282448
0.0282255
0.0282049
0.0281835
0.0281618
0.0281401
0.0281182
0.0280962
0.0280738
0.028051
0.0280278
0.0280041
0.0279798
0.0279549
0.0279291
0.0279022
0.0278741
0.0278447
0.0278143
0.0277832
0.0277521
0.0277222
0.0276946
0.0276708
0.0276523
0.0276403
0.0276357
0.027639
0.02765
0.0276682
0.0276922
0.0277206
0.0277518
0.0277842
0.0278164
0.0278474
0.0278764
0.0279028
0.027926
0.0279452
0.0279594
0.0279679
0.0279697
0.0279648
0.0279533
0.0279363
0.0279155
0.0278926
0.0278694
0.0278472
0.0278265
0.0278069
0.0277876
0.0277672
0.0277445
0.0277186
0.0276892
0.027657
0.0276233
0.0275897
0.0275584
0.0275316
0.0275113
0.027499
0.0274956
0.0275015
0.0275168
0.0275412
0.0275736
0.0275736
0.04
0.0288134
0.029488
0.0300981
0.0303181
0.0304513
0.0306958
0.0312193
0.0316475
0.0311361
0.0308993
0.0314151
0.0316413
0.03113
0.0308783
0.0311078
0.031128
0.0308058
0.0306532
0.0306922
0.030599
0.0304058
0.030315
0.030264
0.0301362
0.030006
0.0299282
0.0298384
0.0297134
0.0296111
0.0295293
0.0294308
0.0293258
0.0292434
0.0291659
0.0290799
0.0290001
0.0289348
0.028868
0.0288009
0.0287443
0.0286974
0.0286528
0.0286173
0.0285952
0.0285825
0.0285768
0.0285819
0.0285956
0.0286143
0.0286372
0.028665
0.0286956
0.0287288
0.0287649
0.0288042
0.0288474
0.0288951
0.0289465
0.0290029
0.0290653
0.0291324
0.0292039
0.0292821
0.0293663
0.0294545
0.0295484
0.029649
0.0297539
0.0298631
0.0299784
0.0300984
0.0302223
0.0303514
0.0304852
0.0306227
0.0307655
0.0309127
0.0310626
0.0312163
0.0313752
0.0315345
0.0316945
0.0318581
0.0320236
0.0321853
0.0323475
0.0325116
0.0326739
0.0328299
0.0329866
0.0331412
0.0332908
0.0334324
0.0335724
0.0337047
0.0338297
0.0339433
0.0340511
0.034146
0.0342315
0.0343006
0.034362
0.0344066
0.034441
0.0344568
0.0344676
0.0344584
0.0344418
0.0344075
0.0343713
0.0343113
0.0342507
0.0341706
0.0340905
0.0339842
0.0338855
0.0337605
0.0336423
0.0334961
0.0333662
0.0332033
0.0330613
0.0328857
0.0327397
0.0325531
0.0324049
0.0322118
0.0320663
0.0318679
0.0317278
0.0315282
0.0313975
0.0311983
0.0310787
0.0308831
0.0307759
0.0305841
0.0304898
0.0303061
0.0302254
0.0300517
0.0299856
0.0298251
0.0297704
0.0296224
0.0295776
0.0294432
0.0294059
0.0292882
0.0292616
0.0291636
0.0291472
0.0290693
0.0290598
0.0289948
0.0289837
0.0289244
0.0289054
0.0288462
0.0288193
0.0287633
0.0287349
0.0286889
0.0286689
0.0286412
0.0286369
0.0286316
0.0286464
0.0286631
0.028695
0.0287291
0.0287734
0.0288181
0.028868
0.0289165
0.0289662
0.0290126
0.0290575
0.0290983
0.0291362
0.02917
0.0292007
0.0292279
0.0292527
0.029275
0.0292958
0.029315
0.0293333
0.0293507
0.0293674
0.0293835
0.0293988
0.0294132
0.0294265
0.0294385
0.029449
0.0294579
0.0294651
0.0294707
0.0294747
0.0294774
0.029479
0.0294799
0.0294803
0.0294806
0.029481
0.0294816
0.0294824
0.0294834
0.0294844
0.0294852
0.0294856
0.0294853
0.0294842
0.029482
0.0294788
0.0294743
0.0294686
0.0294617
0.0294538
0.0294449
0.0294353
0.0294253
0.0294151
0.0294051
0.0293956
0.0293868
0.0293789
0.0293721
0.0293662
0.0293613
0.0293571
0.0293537
0.0293508
0.0293484
0.0293463
0.0293445
0.0293429
0.0293416
0.0293405
0.0293397
0.0293392
0.0293391
0.0293395
0.0293403
0.0293416
0.0293436
0.0293462
0.0293497
0.0293543
0.0293603
0.0293681
0.029378
0.0293902
0.029405
0.0294226
0.0294429
0.0294657
0.029491
0.0295183
0.0295472
0.0295771
0.0296073
0.0296373
0.0296661
0.0296932
0.0297179
0.0297398
0.0297584
0.0297737
0.0297857
0.0297945
0.0298005
0.0298038
0.029805
0.0298043
0.0298022
0.029799
0.0297952
0.0297909
0.0297865
0.0297822
0.0297779
0.0297738
0.0297697
0.0297656
0.0297614
0.029757
0.0297525
0.0297478
0.0297434
0.0297394
0.0297364
0.0297348
0.0297352
0.0297379
0.0297432
0.0297511
0.0297613
0.0297734
0.0297865
0.0297998
0.0298125
0.0298239
0.0298335
0.0298411
0.029847
0.0298513
0.0298546
0.0298574
0.02986
0.0298628
0.029866
0.0298697
0.0298742
0.0298795
0.0298858
0.0298932
0.0299015
0.0299107
0.0299201
0.029929
0.0299365
0.0299415
0.0299432
0.0299408
0.0299342
0.0299235
0.0299093
0.0298925
0.0298739
0.0298544
0.0298345
0.0298145
0.0297942
0.0297735
0.0297517
0.0297288
0.0297044
0.0296787
0.0296518
0.0296241
0.0295957
0.029567
0.0295379
0.0295086
0.0294792
0.0294498
0.0294205
0.0293919
0.0293646
0.0293395
0.0293178
0.0293006
0.0292891
0.029284
0.0292858
0.0292944
0.0293094
0.0293297
0.0293541
0.0293813
0.0294099
0.0294388
0.029467
0.0294935
0.0295176
0.0295386
0.0295557
0.0295681
0.0295751
0.0295761
0.0295709
0.0295599
0.0295438
0.0295239
0.0295019
0.0294791
0.0294567
0.0294351
0.0294143
0.0293934
0.0293714
0.0293472
0.0293201
0.0292899
0.029257
0.0292226
0.0291884
0.0291563
0.0291282
0.0291061
0.0290916
0.0290858
0.0290891
0.0291015
0.0291227
0.0291521
0.0291521
0.04
0.0295322
0.0300913
0.0297623
0.0301425
0.0306198
0.0307904
0.0308411
0.0308475
0.0310322
0.0315211
0.0315015
0.031164
0.0312376
0.0315948
0.0315221
0.0312377
0.0312485
0.0313966
0.0313046
0.0311382
0.0311257
0.0311376
0.031038
0.0309396
0.0309068
0.0308516
0.0307533
0.0306776
0.0306226
0.0305421
0.0304536
0.030386
0.0303211
0.0302418
0.0301688
0.0301072
0.0300417
0.0299713
0.02991
0.0298542
0.0297979
0.0297477
0.0297103
0.0296809
0.0296597
0.0296508
0.0296536
0.0296634
0.0296809
0.0297056
0.0297348
0.0297672
0.0298036
0.0298428
0.0298852
0.0299315
0.0299812
0.0300346
0.0300936
0.0301569
0.0302239
0.0302969
0.0303758
0.0304583
0.0305459
0.0306403
0.030739
0.0308416
0.0309503
0.0310644
0.031182
0.0313049
0.0314331
0.0315656
0.031703
0.0318457
0.0319918
0.0321428
0.0322989
0.0324574
0.0326172
0.0327822
0.0329491
0.0331144
0.0332804
0.0334504
0.0336183
0.0337825
0.0339468
0.0341128
0.0342726
0.0344274
0.0345805
0.0347314
0.0348717