# vtk DataFile Version 3.0
LBM output step 300
ASCII
DATASET STRUCTURED_POINTS
DIMENSIONS 400 100 1
ORIGIN 0 0 0
SPACING 1 1 1
POINT_DATA 40000
SCALARS velocity_magnitude double 1
LOOKUP_TABLE default
0
0
0
0
0
0
0
0
0
0
0
0
0
0
0
0
0
0
0
0
0
0
0
0
0
0
0
0
0
0
0
0
0
0
0
0
0
0
0
0
0
0
0
0
0
0
0
0
0
0
0
0
0
0
0
0
0
0
0
0
0
0
0
0
0
0
0
0
0
0
0
0
0
0
0
0
0
0
0
0
0
0
0
0
0
0
0
0
0
0
0
0
0
0
0
0
0
0
0
0
0
0
0
0
0
0
0
0
0
0
0
0
0
0
0
0
0
0
0
0
0
0
0
0
0
0
0
0
0
0
0
0
0
0
0
0
0
0
0
0
0
0
0
0
0
0
0
0
0
0
0
0
0
0
0
0
0
0
0
0
0
0
0
0
0
0
0
0
0
0
0
0
0
0
0
0
0
0
0
0
0
0
0
0
0
0
0
0
0
0
0
0
0
0
0
0
0
0
0
0
0
0
0
0
0
0
0
0
0
0
0
0
0
0
0
0
0
0
0
0
0
0
0
0
0
0
0
0
0
0
0
0
0
0
0
0
0
0
0
0
0
0
0
0
0
0
0
0
0
0
0
0
0
0
0
0
0
0
0
0
0
0
0
0
0
0
0
0
0
0
0
0
0
0
0
0
0
0
0
0
0
0
0
0
0
0
0
0
0
0
0
0
0
0
0
0
0
0
0
0
0
0
0
0
0
0
0
0
0
0
0
0
0
0
0
0
0
0
0
0
0
0
0
0
0
0
0
0
0
0
0
0
0
0
0
0
0
0
0
0
0
0
0
0
0
0
0
0
0
0
0
0
0
0
0
0
0
0
0
0
0
0
0
0
0
0
0
0
0
0
0
0
0
0
0
0
0
0
0
0
0
0
0
0
0
0
0
0
0
0
0
0
0
0
0
0
0
0
0
0
0.04
0.0146919
0.00938516
0.0155305
0.0176634
0.0172245
0.014563
0.0145468
0.0149172
0.0152341
0.0150598
0.0151566
0.014926
0.0146993
0.0144896
0.0143185
0.0140169
0.0136575
0.0133423
0.0128895
0.0123466
0.0116018
0.0107366
0.00959795
0.0083386
0.00700433
0.00579536
0.0048392
0.0043219
0.00428748
0.00468384
0.0053535
0.00611468
0.00679172
0.00727728
0.00755548
0.00766783
0.00768769
0.00768036
0.00769914
0.0077554
0.00784802
0.00796298
0.00809261
0.00822622
0.0083591
0.00848188
0.00859342
0.0086974
0.00881112
0.00895695
0.00915892
0.00942511
0.00974098
0.0100693
0.0103693
0.0106034
0.0107524
0.0108264
0.0108572
0.0108854
0.010953
0.0110834
0.0112735
0.0115017
0.011742
0.0119681
0.0121593
0.0123112
0.0124321
0.0125325
0.0126238
0.0127191
0.0128257
0.0129416
0.0130666
0.0132063
0.013358
0.0135165
0.0136821
0.0138514
0.0140094
0.0141479
0.0142667
0.0143603
0.0144225
0.0144606
0.0144801
0.0144825
0.0144698
0.0144506
0.0144287
0.0144014
0.0143711
0.0143465
0.0143237
0.0143031
0.0142894
0.0142825
0.0142809
0.0142841
0.014292
0.0143066
0.0143214
0.0143376
0.0143597
0.0143818
0.014403
0.0144292
0.0144555
0.0144806
0.0145083
0.0145383
0.014567
0.0145976
0.0146329
0.0146699
0.0147072
0.0147493
0.0147933
0.0148348
0.0148773
0.0149274
0.0149814
0.015036
0.015095
0.0151488
0.0151858
0.0152155
0.0152402
0.0152498
0.0152514
0.0152498
0.0152242
0.015162
0.015075
0.0149627
0.0148091
0.0146338
0.0144791
0.0143403
0.0141744
0.0139815
0.0138159
0.0137111
0.013647
0.0136141
0.0136617
0.0138325
0.0140621
0.0142122
0.0142421
0.0142864
0.0144899
0.0148123
0.015092
0.0152926
0.0155824
0.0161204
0.0168073
0.0173148
0.0174125
0.017276
0.0174121
0.0181919
0.019401
0.0202858
0.0201981
0.0193108
0.0186793
0.0195015
0.0220714
0.0251311
0.0263437
0.0240411
0.0187367
0.0125855
0.00748706
0.00407345
0.00208186
0.00101785
0.000480301
0.000219952
9.81773e-05
4.25132e-05
1.81466e-05
7.57182e-06
2.95862e-06
1.23036e-06
6.18641e-07
4.81721e-07
3.03378e-07
3.97532e-07
4.68467e-07
1.94357e-07
5.33947e-07
1.79209e-07
2.85954e-07
3.01023e-07
1.14663e-08
1.97703e-07
1.06506e-07
5.97471e-08
8.01337e-08
4.31781e-09
3.57045e-08
1.29205e-08
7.68463e-09
4.94702e-09
2.1145e-09
2.67036e-09
9.76977e-10
4.92232e-10
4.62677e-10
4.68029e-10
3.39229e-10
2.17813e-10
1.42578e-10
9.28624e-11
5.61213e-11
2.9565e-11
1.76008e-11
1.92957e-11
2.52073e-11
2.57093e-11
2.18903e-11
1.92544e-11
1.62963e-11
1.14405e-11
8.18462e-12
7.36729e-12
5.83196e-12
2.80303e-12
9.7283e-13
4.53061e-13
9.01613e-13
8.03821e-13
1.24969e-13
4.45473e-13
3.0791e-13
3.38047e-14
1.01133e-13
6.738e-14
1.70958e-13
1.29434e-13
6.20074e-14
5.1128e-14
8.27648e-14
9.0999e-14
7.60313e-14
6.86157e-14
7.38752e-14
7.15433e-14
6.8404e-14
6.44921e-14
6.61512e-14
5.92005e-14
5.62252e-14
5.73228e-14
5.087e-14
4.55215e-14
4.52746e-14
4.1225e-14
3.59719e-14
3.33443e-14
3.18422e-14
2.60917e-14
2.436e-14
2.30026e-14
1.84993e-14
1.61341e-14
1.59879e-14
1.2674e-14
1.04368e-14
9.83729e-15
7.5789e-15
6.64755e-15
6.31216e-15
4.53099e-15
3.80659e-15
3.89294e-15
2.49801e-15
2.55581e-15
1.24623e-15
1.46518e-15
1.05491e-15
1.03263e-15
6.04321e-16
4.51148e-16
2.64999e-16
7.93662e-16
2.58352e-16
1.97789e-16
3.27968e-16
5.91284e-16
5.53298e-16
6.86328e-16
4.88503e-16
3.54156e-16
1.67865e-16
1.33472e-16
0
0
0
0
0
0
0
0
0
0
0
0
0
0
0
0
0
0
0
0
0
0
0
0
0
0
0
0
0
0
0
0
0
0
0
0
0
0
0
0
0
0
0
0
0
0
0
0
0
0
0
0
0
0
0
0
0
0
0
0
0
0
0
0
0
0
0
0
0
0
0
0
0
0
0
0
0
0
0
0
0
0
0
0
0
0
0
0
0
0
0
0
0
0
0
0
0
0
0
0.04
0.0225673
0.0230872
0.020583
0.0141651
0.0145106
0.0181019
0.0191299
0.0181292
0.0182909
0.0190523
0.0193521
0.0193324
0.0194454
0.0194195
0.0191732
0.0190417
0.0188664
0.0186591
0.0181874
0.0178132
0.0171153
0.0163435
0.0152233
0.0141333
0.0128431
0.0117524
0.0108413
0.0103896
0.0103018
0.0106381
0.0112125
0.0118909
0.0125112
0.0130193
0.0133891
0.0136398
0.013813
0.0139562
0.0140914
0.014232
0.0143865
0.0145521
0.0147253
0.014903
0.0150825
0.0152599
0.0154369
0.0156232
0.0158355
0.0160891
0.0163912
0.016736
0.017102
0.017458
0.0177735
0.0180284
0.0182241
0.0183756
0.0185045
0.0186435
0.0188165
0.0190275
0.0192742
0.0195473
0.0198261
0.020094
0.0203469
0.0205806
0.0207895
0.0209815
0.0211669
0.0213455
0.021521
0.0217069
0.0219051
0.0221108
0.0223284
0.0225606
0.022794
0.0230183
0.0232333
0.0234338
0.0236069
0.0237553
0.0238858
0.0239952
0.0240786
0.0241433
0.0241965
0.0242357
0.0242588
0.0242771
0.0242937
0.0243045
0.0243135
0.0243257
0.024337
0.0243475
0.0243589
0.0243706
0.0243794
0.0243876
0.0243952
0.0243995
0.0244028
0.0244066
0.0244058
0.0244052
0.0244051
0.0243983
0.0243914
0.0243887
0.0243788
0.0243661
0.0243592
0.0243511
0.024339
0.0243319
0.024328
0.024317
0.024301
0.0242889
0.0242753
0.0242565
0.0242414
0.0242284
0.0242052
0.0241719
0.0241304
0.0240714
0.0239934
0.0239061
0.0238079
0.0236905
0.023558
0.0234101
0.0232268
0.023002
0.0227664
0.0225374
0.022289
0.0220172
0.0217787
0.0216133
0.0214886
0.0213771
0.0213258
0.0213854
0.0215055
0.0215663
0.0215317
0.0215145
0.0216402
0.021877
0.0220707
0.0221686
0.0223293
0.0227226
0.0232546
0.0235932
0.0235139
0.0232063
0.0231705
0.0237464
0.0246984
0.0252808
0.024879
0.0237001
0.0227819
0.0232603
0.0254027
0.027985
0.0287007
0.0258767
0.0200371
0.013401
0.00793998
0.00430266
0.00218872
0.00106391
0.000499595
0.000226882
0.000100035
4.28329e-05
1.78023e-05
7.19887e-06
2.85512e-06
1.10818e-06
4.38144e-07
2.6448e-07
5.03445e-07
4.1845e-07
9.06051e-08
4.21425e-07
2.4682e-07
3.01711e-07
2.46326e-07
1.51499e-07
1.69567e-07
7.1859e-08
9.50568e-08
7.11252e-08
3.48063e-08
4.50248e-08
1.03362e-08
1.8742e-08
6.46631e-09
5.44547e-09
2.00261e-09
1.23859e-09
1.36544e-09
9.25747e-10
7.6271e-10
7.38446e-10
7.3206e-10
6.70787e-10
5.92195e-10
5.13457e-10
4.42524e-10
3.7903e-10
3.22282e-10
2.67651e-10
2.13001e-10
1.62939e-10
1.23261e-10
9.27135e-11
6.79942e-11
4.82931e-11
3.3621e-11
2.24378e-11
1.36996e-11
8.01506e-12
5.22257e-12
3.8249e-12
2.26266e-12
9.42717e-13
4.2602e-13
3.22614e-13
4.78879e-13
4.02015e-13
1.91193e-13
1.36392e-13
1.58262e-13
1.98896e-13
1.74512e-13
1.35742e-13
1.20569e-13
1.2003e-13
1.30468e-13
1.12453e-13
1.00999e-13
1.06585e-13
9.98763e-14
8.47724e-14
9.2353e-14
8.60889e-14
7.19876e-14
7.33858e-14
7.62013e-14
5.98422e-14
5.90232e-14
6.0066e-14
5.15969e-14
4.639e-14
4.83137e-14
3.99971e-14
3.5741e-14
3.60001e-14
3.25375e-14
2.52647e-14
2.62051e-14
2.27471e-14
1.9696e-14
1.80861e-14
1.58312e-14
1.30663e-14
1.23303e-14
1.12211e-14
8.7966e-15
7.0355e-15
7.36993e-15
4.75221e-15
5.71006e-15
3.76339e-15
3.06401e-15
3.49267e-15
2.54643e-15
2.3213e-15
1.39686e-15
1.22525e-15
1.68125e-15
4.88995e-16
8.32761e-16
4.81591e-16
7.18812e-16
1.63653e-16
2.72832e-16
2.21312e-16
1.21381e-16
1.18419e-16
0
0
0
0
0
0
0
0
0
0
0
0
0
0
0
0
0
0
0
0
0
0
0
0
0
0
0
0
0
0
0
0
0
0
0
0
0
0
0
0
0
0
0
0
0
0
0
0
0
0
0
0
0
0
0
0
0
0
0
0
0
0
0
0
0
0
0
0
0
0
0
0
0
0
0
0
0
0
0
0
0
0
0
0
0
0
0
0
0
0
0
0
0
0
0
0
0
0
0
0.04
0.0241781
0.0217253
0.0184813
0.0195866
0.0217502
0.0207357
0.0195572
0.0204372
0.0216077
0.0216255
0.0216172
0.022019
0.022292
0.0222624
0.0222271
0.0223018
0.0221256
0.0219876
0.0216454
0.021373
0.0206481
0.020001
0.0189932
0.0181044
0.0170073
0.0162556
0.0156022
0.0153758
0.015376
0.015719
0.0161541
0.0166615
0.0171193
0.0175409
0.0178929
0.0182059
0.0184802
0.0187175
0.0189125
0.0190755
0.0192115
0.0193302
0.0194445
0.0195598
0.0196812
0.0198163
0.0199766
0.0201752
0.0204232
0.0207206
0.0210517
0.0213891
0.0217053
0.0219744
0.0221825
0.0223434
0.0224785
0.0226062
0.0227503
0.0229261
0.0231286
0.023348
0.023579
0.023812
0.0240357
0.0242538
0.0244729
0.0246872
0.0248936
0.0250959
0.0252906
0.0254734
0.0256525
0.0258381
0.0260284
0.0262256
0.0264354
0.026649
0.0268519
0.0270451
0.027226
0.0273853
0.0275233
0.0276495
0.0277621
0.0278574
0.0279379
0.028008
0.0280652
0.0281075
0.0281381
0.0281657
0.0281876
0.0282016
0.0282134
0.0282264
0.028233
0.0282328
0.0282309
0.0282273
0.0282122
0.0281915
0.0281731
0.028147
0.0281106
0.0280766
0.0280385
0.0279898
0.0279394
0.02789
0.0278349
0.0277741
0.0277141
0.0276531
0.0275831
0.0275115
0.0274435
0.0273702
0.0272924
0.0272171
0.0271381
0.027049
0.0269554
0.0268631
0.0267666
0.0266665
0.0265688
0.0264697
0.0263571
0.0262275
0.0260894
0.0259467
0.0257963
0.0256462
0.0255022
0.0253491
0.0251605
0.0249222
0.0246489
0.0243612
0.0240534
0.0237261
0.0234222
0.0231799
0.0229727
0.022753
0.0225505
0.0224414
0.0224163
0.0223713
0.02226
0.0221764
0.0222289
0.0223801
0.0224822
0.0224762
0.0225027
0.0227412
0.0231399
0.0233951
0.0232721
0.0229269
0.0228241
0.0232796
0.0240776
0.0245616
0.02419
0.0231141
0.0222332
0.0226031
0.0245622
0.0270679
0.0279431
0.0254509
0.019922
0.0134537
0.00803262
0.00437785
0.00223991
0.00109445
0.000516168
0.000236856
0.000105431
4.58368e-05
1.92314e-05
7.90422e-06
3.46826e-06
1.60097e-06
6.9656e-07
4.80454e-07
1.8926e-07
2.23842e-07
2.74037e-07
2.20189e-07
2.09973e-07
2.60762e-07
1.46153e-07
1.31405e-07
9.83419e-08
7.95011e-08
4.39459e-08
6.84676e-08
2.66211e-08
3.5024e-08
1.92188e-08
1.04033e-08
9.32091e-09
2.06059e-09
3.01055e-09
4.60015e-10
7.23812e-10
1.88921e-10
2.39909e-10
3.09552e-10
3.47214e-10
3.51028e-10
3.38251e-10
3.18983e-10
2.93751e-10
2.68867e-10
2.42366e-10
2.096e-10
1.73003e-10
1.37972e-10
1.06511e-10
8.15712e-11
6.28277e-11
4.63395e-11
3.12115e-11
2.00426e-11
1.30579e-11
8.79528e-12
5.75632e-12
3.36137e-12
1.60511e-12
6.24582e-13
6.12163e-13
5.5425e-13
3.04463e-13
2.03292e-13
9.0692e-14
1.30105e-13
1.69328e-13
1.20321e-13
8.58833e-14
6.97174e-14
6.96649e-14
7.45482e-14
6.80586e-14
5.39392e-14
4.53985e-14
5.25986e-14
4.45735e-14
3.6559e-14
3.86736e-14
3.69748e-14
2.59547e-14
2.99657e-14
2.98913e-14
2.20792e-14
2.08635e-14
2.33135e-14
1.95823e-14
1.70787e-14
1.80761e-14
1.61956e-14
1.32174e-14
1.47509e-14
1.35303e-14
9.72701e-15
9.9137e-15
1.08393e-14
7.7117e-15
7.79881e-15
7.10822e-15
5.88256e-15
5.98996e-15
5.6208e-15
4.09846e-15
3.52486e-15
3.71168e-15
3.16297e-15
2.73697e-15
2.66985e-15
1.86358e-15
2.14006e-15
1.77299e-15
1.16259e-15
1.05927e-15
8.71943e-16
9.78882e-16
7.01524e-16
3.10704e-16
4.08512e-16
4.93833e-16
1.63322e-16
1.74199e-16
2.53365e-16
9.86812e-17
1.11886e-16
0
0
0
0
0
0
0
0
0
0
0
0
0
0
0
0
0
0
0
0
0
0
0
0
0
0
0
0
0
0
0
0
0
0
0
0
0
0
0
0
0
0
0
0
0
0
0
0
0
0
0
0
0
0
0
0
0
0
0
0
0
0
0
0
0
0
0
0
0
0
0
0
0
0
0
0
0
0
0
0
0
0
0
0
0
0
0
0
0
0
0
0
0
0
0
0
0
0
0
0.04
0.0261072
0.0273869
0.0270077
0.0262736
0.0234544
0.0219254
0.0231051
0.0237787
0.0229212
0.0225265
0.0232835
0.0237095
0.0236027
0.0236559
0.023889
0.0239466
0.0237401
0.0237109
0.0234002
0.0230632
0.0223174
0.0217552
0.020778
0.0200254
0.0191408
0.0186785
0.0182179
0.0181566
0.0181745
0.0184121
0.0186039
0.018865
0.019101
0.0193931
0.0197181
0.0201062
0.0204937
0.0208374
0.0211048
0.0212909
0.0214026
0.02147
0.0215233
0.0215788
0.0216529
0.0217617
0.0219213
0.0221438
0.0224315
0.0227662
0.0231131
0.0234325
0.0236909
0.02387
0.0239843
0.0240683
0.0241553
0.0242741
0.0244425
0.0246511
0.0248752
0.0250967
0.0253012
0.0254778
0.0256367
0.025798
0.0259693
0.0261518
0.0263486
0.026552
0.0267461
0.0269314
0.0271137
0.0272903
0.0274643
0.0276449
0.0278249
0.0279934
0.0281494
0.0282923
0.0284116
0.0285103
0.0286021
0.0286871
0.0287587
0.028826
0.028893
0.0289515
0.0289964
0.0290365
0.0290732
0.0290993
0.029115
0.0291288
0.0291369
0.0291361
0.0291296
0.0291177
0.0290957
0.0290671
0.0290333
0.0289917
0.0289426
0.0288904
0.0288318
0.0287656
0.0286961
0.0286217
0.0285388
0.0284549
0.0283698
0.0282758
0.0281821
0.028092
0.0279921
0.0278871
0.0277873
0.0276832
0.0275689
0.0274552
0.0273423
0.0272199
0.0270912
0.0269665
0.026841
0.0267074
0.0265692
0.0264327
0.02629
0.0261315
0.0259703
0.0258209
0.0256767
0.0255353
0.0254086
0.0252903
0.0251421
0.0249387
0.0246979
0.024438
0.0241539
0.0238528
0.0235699
0.0233312
0.0231099
0.022855
0.0225813
0.0223706
0.0222559
0.0221738
0.0220773
0.0220332
0.022127
0.0222998
0.0223815
0.0223178
0.0222836
0.0224923
0.022906
0.0232059
0.0231128
0.0227511
0.0226047
0.0230378
0.0238651
0.02442
0.0241233
0.0230816
0.022165
0.0224522
0.024369
0.0269677
0.0280622
0.0257831
0.0203338
0.0138053
0.00826715
0.0045085
0.00230433
0.00112458
0.000528509
0.000240953
0.000106766
4.5981e-05
1.92506e-05
7.76327e-06
2.71787e-06
7.62957e-07
9.39263e-07
4.00006e-07
3.07434e-07
2.60948e-07
3.80575e-07
2.62821e-07
3.51064e-07
2.70216e-07
1.32151e-07
1.74649e-07
1.33879e-07
5.28665e-08
1.22761e-07
3.43748e-08
6.21983e-08
3.2734e-08
1.81217e-08
1.72373e-08
4.56032e-09
5.55076e-09
6.5589e-10
1.39018e-09
7.8425e-10
4.94487e-10
2.07164e-10
5.24604e-11
4.30918e-11
1.01482e-10
1.45223e-10
1.64313e-10
1.74402e-10
1.79728e-10
1.77359e-10
1.65167e-10
1.4403e-10
1.16846e-10
9.26324e-11
7.45608e-11
5.81818e-11
4.2336e-11
2.96951e-11
2.03488e-11
1.34423e-11
8.55309e-12
5.02698e-12
2.65066e-12
1.40106e-12
1.05787e-12
6.21032e-13
1.56435e-13
2.53494e-13
7.57914e-14
1.43618e-13
1.09562e-13
3.36399e-14
8.19965e-14
2.62062e-14
2.57733e-14
1.41505e-14
2.23954e-14
2.02337e-14
2.39799e-14
2.38001e-14
1.82039e-14
2.06605e-14
2.54613e-14
1.96818e-14
1.93082e-14
2.34855e-14
1.71397e-14
1.4593e-14
2.07936e-14
1.52472e-14
1.13973e-14
1.25325e-14
1.16813e-14
8.05092e-15
8.73543e-15
6.94387e-15
4.45163e-15
4.20235e-15
5.33664e-15
3.03699e-15
2.10815e-15
2.37404e-15
2.31755e-15
1.21849e-15
1.74399e-15
1.57805e-15
1.45287e-15
6.59524e-16
1.20107e-15
1.06937e-15
1.23899e-15
9.99803e-16
1.15493e-15
1.18296e-15
9.1992e-16
1.13961e-15
6.53749e-16
5.76597e-16
9.54098e-16
3.49606e-16
7.85797e-16
4.33695e-16
4.25216e-16
3.49382e-16
1.28791e-16
2.58631e-16
1.85478e-16
1.02098e-16
1.11076e-16
0
0
0
0
0
0
0
0
0
0
0
0
0
0
0
0
0
0
0
0
0
0
0
0
0
0
0
0
0
0
0
0
0
0
0
0
0
0
0
0
0
0
0
0
0
0
0
0
0
0
0
0
0
0
0
0
0
0
0
0
0
0
0
0
0
0
0
0
0
0
0
0
0
0
0
0
0
0
0
0
0
0
0
0
0
0
0
0
0
0
0
0
0
0
0
0
0
0
0
0.04
0.0266462
0.0277527
0.0264254
0.0255975
0.0254745
0.0262044
0.0253214
0.023742
0.0237356
0.0245092
0.0244126
0.0239389
0.0241653
0.0245743
0.0245378
0.0244289
0.0243906
0.0243566
0.0238683
0.0234968
0.0227794
0.0221822
0.0212178
0.0206852
0.0200325
0.0198031
0.0195426
0.0196329
0.0196019
0.0196657
0.019609
0.019625
0.0196424
0.0198195
0.0201275
0.0205564
0.0210018
0.0214106
0.021722
0.021919
0.0220231
0.0220711
0.0220906
0.0221102
0.0221609
0.0222641
0.0224392
0.0226948
0.0230171
0.0233665
0.0236969
0.023966
0.0241488
0.0242537
0.0243184
0.0243815
0.0244788
0.0246336
0.0248398
0.0250692
0.0252967
0.0255016
0.0256669
0.0257995
0.0259246
0.0260566
0.0262043
0.0263775
0.0265703
0.0267693
0.0269692
0.0271707
0.0273681
0.0275595
0.0277493
0.0279305
0.028089
0.0282278
0.0283469
0.0284388
0.0285112
0.0285786
0.0286385
0.0286911
0.0287459
0.028805
0.0288587
0.0289089
0.0289616
0.0290151
0.0290625
0.0291037
0.0291402
0.0291719
0.0291911
0.0291967
0.0291937
0.029185
0.0291628
0.0291285
0.0290917
0.0290487
0.0289905
0.0289303
0.0288696
0.0287949
0.0287133
0.0286352
0.0285471
0.0284475
0.0283515
0.0282572
0.0281513
0.0280415
0.0279367
0.0278241
0.0277014
0.027585
0.0274698
0.0273459
0.0272246
0.0271072
0.026976
0.026833
0.0266926
0.0265486
0.0263935
0.0262446
0.0261077
0.0259645
0.0258112
0.0256666
0.0255356
0.0254039
0.025279
0.0251793
0.0250769
0.0249316
0.024755
0.0245736
0.024378
0.0241519
0.0239193
0.0237091
0.0234867
0.0231992
0.022874
0.0226023
0.0224321
0.0223242
0.0222314
0.0221912
0.0222763
0.022446
0.022538
0.0224721
0.0223945
0.0225197
0.0228448
0.0230986
0.0230317
0.0227419
0.0226372
0.0230281
0.0237505
0.0242165
0.0239177
0.0229568
0.022117
0.0223891
0.0242018
0.0267099
0.0278325
0.0256921
0.0203843
0.0139164
0.00837169
0.00458355
0.00234806
0.00114879
0.000542855
0.000248194
0.000110536
4.78738e-05
2.03879e-05
8.69656e-06
3.62215e-06
1.46564e-06
3.09902e-07
3.43848e-07
3.39147e-07
3.54263e-07
1.8577e-07
4.05626e-07
1.19186e-07
3.20547e-07
1.38178e-07
9.16416e-08
1.47449e-07
7.65768e-08
7.12246e-08
9.15895e-08
1.07276e-08
4.96279e-08
1.179e-08
1.74516e-08
7.77258e-09
3.54591e-09
2.94224e-09
1.02229e-09
1.05758e-09
3.96655e-10
2.62472e-10
8.94688e-11
2.15651e-11
8.07105e-11
1.18965e-10
1.4552e-10
1.65605e-10
1.78023e-10
1.79523e-10
1.66898e-10
1.41274e-10
1.15336e-10
9.59139e-11
7.82882e-11
6.0406e-11
4.46915e-11
3.15809e-11
2.11669e-11
1.37646e-11
8.95137e-12
5.36367e-12
3.2987e-12
1.91337e-12
8.50942e-13
5.17912e-13
2.40372e-13
1.55047e-13
2.59426e-13
6.17967e-14
1.40507e-13
1.04189e-13
3.97582e-14
6.17742e-14
1.18051e-14
3.79194e-14
2.96448e-14
2.72701e-14
2.55828e-14
2.48569e-14
2.35152e-14
2.61701e-14
2.56664e-14
2.35761e-14
2.18702e-14
2.41055e-14
1.95234e-14
1.76465e-14
2.13808e-14
1.68973e-14
1.25132e-14
1.44303e-14
1.34706e-14
8.50904e-15
9.39276e-15
8.37178e-15
5.59819e-15
5.75356e-15
5.46042e-15
3.15234e-15
3.1925e-15
3.3753e-15
2.33552e-15
1.20246e-15
2.05204e-15
1.15653e-15
1.73606e-15
1.29276e-15
1.56056e-15
9.00621e-16
1.51942e-15
1.32215e-15
1.07114e-15
1.26182e-15
7.6985e-16
1.08463e-15
1.24488e-15
6.65818e-16
1.2775e-15
2.90047e-16
5.91813e-16
2.37144e-16
3.02937e-16
2.62259e-16
1.17808e-16
2.13449e-16
2.05167e-16
1.07776e-16
1.01151e-16
0
0
0
0
0
0
0
0
0
0
0
0
0
0
0
0
0
0
0
0
0
0
0
0
0
0
0
0
0
0
0
0
0
0
0
0
0
0
0
0
0
0
0
0
0
0
0
0
0
0
0
0
0
0
0
0
0
0
0
0
0
0
0
0
0
0
0
0
0
0
0
0
0
0
0
0
0
0
0
0
0
0
0
0
0
0
0
0
0
0
0
0
0
0
0
0
0
0
0
0.04
0.0246129
0.0251059
0.0262602
0.0269871
0.0267193
0.0261105
0.0252082
0.0253276
0.0255322
0.0248615
0.0242687
0.0245745
0.0249256
0.0247304
0.0245365
0.024693
0.024611
0.0243189
0.0237786
0.0234258
0.0225962
0.0219611
0.0211367
0.0208091
0.0203443
0.0203816
0.0203501
0.0205362
0.0204505
0.0203813
0.0201123
0.0198908
0.0197162
0.0197833
0.0200356
0.0204539
0.0209282
0.021381
0.0217279
0.0219559
0.0220834
0.0221379
0.0221553
0.0221779
0.022241
0.0223694
0.0225808
0.0228656
0.0231908
0.0235124
0.0237879
0.0239864
0.0241084
0.0241823
0.0242438
0.0243287
0.0244657
0.0246584
0.0248861
0.0251242
0.0253504
0.0255389
0.0256835
0.0258021
0.0259096
0.0260179
0.026146
0.0263029
0.0264796
0.0266757
0.0268942
0.0271233
0.0273525
0.0275792
0.0277887
0.0279665
0.028112
0.0282279
0.0283105
0.0283691
0.0284209
0.0284681
0.0285056
0.0285455
0.0285942
0.0286422
0.0286889
0.0287475
0.0288152
0.0288805
0.0289442
0.029011
0.0290704
0.0291137
0.029146
0.0291714
0.0291796
0.0291739
0.0291626
0.0291398
0.029103
0.0290627
0.0290149
0.0289551
0.0288894
0.0288196
0.0287396
0.0286532
0.0285655
0.0284704
0.0283669
0.0282653
0.0281597
0.0280439
0.0279292
0.0278133
0.027686
0.027558
0.0274322
0.0273024
0.0271756
0.0270547
0.0269274
0.0267928
0.0266547
0.026502
0.0263341
0.0261723
0.026027
0.0258905
0.0257595
0.0256398
0.0255235
0.0253907
0.0252455
0.0251143
0.0250022
0.0248922
0.024781
0.0246845
0.0245916
0.0244616
0.0242915
0.0241103
0.0238963
0.0235952
0.0232281
0.0228975
0.0226719
0.0225241
0.0224145
0.0223792
0.0224658
0.0226105
0.0226527
0.0225183
0.0223584
0.0224121
0.0227082
0.0229766
0.0229334
0.0226328
0.0224679
0.0227854
0.023483
0.023997
0.0237713
0.0228345
0.0219392
0.0221135
0.0238764
0.0264647
0.0277922
0.0258748
0.0206875
0.0142082
0.0085803
0.00470821
0.00241518
0.00118057
0.00055687
0.000254622
0.000112934
4.86714e-05
2.00989e-05
7.89643e-06
3.44372e-06
1.70016e-06
6.1064e-07
5.98355e-08
3.89694e-07
2.0187e-07
5.60037e-07
1.2981e-07
3.74275e-07
1.57477e-07
8.74789e-08
1.59608e-07
9.72132e-08
8.03738e-08
1.09521e-07
2.18165e-08
6.03753e-08
1.5333e-08
2.21871e-08
8.29599e-09
4.80858e-09
3.42099e-09
1.7114e-09
1.11617e-09
3.26834e-10
3.23916e-10
2.07163e-10
6.87444e-11
4.70382e-11
1.02457e-10
1.36754e-10
1.61869e-10
1.82285e-10
1.93324e-10
1.9009e-10
1.70831e-10
1.46549e-10
1.24053e-10
1.02542e-10
8.264e-11
6.50087e-11
4.78546e-11
3.27241e-11
2.22858e-11
1.53705e-11
9.96966e-12
6.12321e-12
3.52521e-12
1.75607e-12
7.18377e-13
3.11534e-13
4.08962e-13
3.21354e-13
9.14789e-14
1.95391e-13
6.06028e-14
9.78214e-14
7.97597e-14
2.74033e-14
4.56583e-14
8.97405e-15
1.89469e-14
1.11477e-14
1.30497e-14
4.70039e-15
5.84441e-15
9.53375e-15
7.63979e-15
8.78911e-15
9.92308e-15
8.86936e-15
7.77646e-15
9.53616e-15
1.00694e-14
7.31475e-15
6.66148e-15
6.95315e-15
6.541e-15
4.6599e-15
4.73135e-15
4.37335e-15
2.89e-15
1.97827e-15
3.1207e-15
2.19503e-15
2.47081e-15
1.33538e-15
1.64826e-15
1.42571e-15
1.59137e-15
1.47329e-15
2.28893e-15
1.26492e-15
1.75884e-15
1.07776e-15
1.08577e-15
1.58006e-15
1.059e-15
1.409e-15
9.8333e-16
9.84742e-16
1.02083e-15
3.82741e-16
1.04778e-15
4.29553e-16
5.0775e-16
3.87415e-16
2.26791e-16
5.41412e-16
5.00371e-17
1.60535e-16
1.98032e-16
1.20435e-16
9.77005e-17
0
0
0
0
0
0
0
0
0
0
0
0
0
0
0
0
0
0
0
0
0
0
0
0
0
0
0
0
0
0
0
0
0
0
0
0
0
0
0
0
0
0
0
0
0
0
0
0
0
0
0
0
0
0
0
0
0
0
0
0
0
0
0
0
0
0
0
0
0
0
0
0
0
0
0
0
0
0
0
0
0
0
0
0
0
0
0
0
0
0
0
0
0
0
0
0
0
0
0
0.04
0.0247816
0.0254999
0.0258522
0.0259451
0.0258901
0.025909
0.0261036
0.0261041
0.0252294
0.0247834
0.0251496
0.0252195
0.0247209
0.0246043
0.024861
0.0248182
0.024338
0.0240764
0.0236195
0.0230732
0.0221213
0.0216278
0.0209607
0.0207689
0.0205524
0.0208693
0.0209683
0.0211723
0.0210474
0.0208598
0.0204089
0.0200378
0.0197747
0.0197724
0.0199625
0.0203397
0.0207785
0.0211925
0.0215252
0.0217765
0.0219419
0.0220412
0.0221143
0.0221934
0.0223071
0.0224833
0.0227288
0.0230182
0.023312
0.0235704
0.023763
0.0238833
0.0239567
0.0240176
0.0241001
0.0242337
0.0244279
0.0246653
0.0249206
0.0251709
0.0253869
0.0255532
0.0256824
0.0257868
0.0258767
0.025974
0.0260925
0.0262318
0.0263969
0.0265956
0.0268225
0.0270675
0.0273222
0.0275694
0.0277842
0.0279602
0.0280971
0.028191
0.0282527
0.0283023
0.0283398
0.028367
0.0283992
0.0284401
0.0284788
0.0285214
0.0285802
0.0286492
0.028717
0.0287899
0.0288686
0.0289419
0.0290048
0.0290589
0.0291025
0.0291372
0.029158
0.0291628
0.0291602
0.0291493
0.0291204
0.0290821
0.0290392
0.0289836
0.0289161
0.0288478
0.0287738
0.0286865
0.0285957
0.0285065
0.0284027
0.0282883
0.0281784
0.028063
0.0279325
0.0278042
0.0276838
0.0275542
0.0274148
0.0272834
0.0271548
0.0270152
0.0268736
0.0267396
0.026602
0.0264519
0.026297
0.02615
0.0260135
0.0258819
0.025755
0.0256371
0.0255122
0.0253612
0.025195
0.0250396
0.0249112
0.024814
0.0247509
0.0247251
0.0247118
0.0246644
0.0245655
0.0244276
0.0242426
0.0239715
0.0236173
0.0232711
0.0230185
0.0228459
0.0227107
0.0226444
0.0226941
0.0227908
0.0227768
0.0225942
0.0223917
0.02239
0.0226222
0.0228511
0.0228095
0.0225327
0.0223787
0.0226731
0.0233235
0.0238012
0.0235736
0.0226538
0.0217638
0.0219152
0.0236417
0.0262293
0.0276337
0.0258483
0.0207719
0.0143324
0.00868397
0.00477295
0.0024527
0.00120106
0.000566414
0.00025965
0.000115651
5.03061e-05
2.14047e-05
8.70121e-06
3.29939e-06
1.06382e-06
7.66371e-07
7.16799e-07
2.03398e-07
4.38326e-07
2.89581e-07
4.7277e-07
1.26951e-07
3.30567e-07
1.31563e-07
1.02655e-07
1.93867e-07
5.78569e-08
1.14948e-07
8.61681e-08
3.33953e-08
5.09421e-08
1.22527e-09
1.83638e-08
4.58134e-09
4.81346e-09
2.32985e-09
8.95927e-10
7.93885e-10
3.47477e-10
2.22176e-10
5.0134e-11
4.35776e-11
9.5496e-11
1.3568e-10
1.66638e-10
1.87164e-10
1.9517e-10
1.88497e-10
1.74263e-10
1.54979e-10
1.30907e-10
1.07053e-10
8.65631e-11
6.70966e-11
4.94469e-11
3.5881e-11
2.54469e-11
1.68746e-11
1.06273e-11
6.20634e-12
3.51729e-12
1.85412e-12
1.13467e-12
8.26039e-13
3.01191e-13
2.7617e-13
2.54366e-13
6.32689e-14
1.93162e-13
7.61289e-14
8.21211e-14
5.08074e-14
1.33003e-14
4.1036e-14
2.27454e-14
8.35667e-15
9.64274e-15
1.01732e-14
1.9369e-15
3.16061e-15
3.19233e-15
4.89844e-15
5.45949e-15
4.32931e-15
3.00665e-15
6.31351e-15
5.92582e-15
3.25479e-15
5.06461e-15
5.29773e-15
2.85315e-15
3.95467e-15
3.74362e-15
2.71782e-15
1.95412e-15
1.80895e-15
2.19219e-15
2.05659e-15
2.09459e-15
1.34411e-15
1.38796e-15
1.29607e-15
1.84679e-15
1.40046e-15
2.4041e-15
9.88202e-16
1.55557e-15
1.4059e-15
1.09271e-15
1.67939e-15
1.2053e-15
1.39763e-15
9.27128e-16
9.26349e-16
1.0044e-15
6.14445e-16
9.6698e-16
5.23519e-16
2.75859e-16
3.38249e-16
6.54614e-17
4.26079e-16
1.08943e-16
2.02688e-16
1.22663e-16
1.19784e-16
1.07609e-16
0
0
0
0
0
0
0
0
0
0
0
0
0
0
0
0
0
0
0
0
0
0
0
0
0
0
0
0
0
0
0
0
0
0
0
0
0
0
0
0
0
0
0
0
0
0
0
0
0
0
0
0
0
0
0
0
0
0
0
0
0
0
0
0
0
0
0
0
0
0
0
0
0
0
0
0
0
0
0
0
0
0
0
0
0
0
0
0
0
0
0
0
0
0
0
0
0
0
0
0.04
0.0254076
0.0259148
0.0255432
0.0258389
0.026112
0.0261428
0.0259536
0.0256315
0.0254852
0.0256619
0.0253756
0.0248692
0.024862
0.0251019
0.0248717
0.0244831
0.0242255
0.024014
0.023237
0.0225616
0.0217627
0.0213529
0.0207421
0.0207939
0.0208634
0.0213229
0.0214895
0.0217412
0.021573
0.0212705
0.0207364
0.0203227
0.0200011
0.0199226
0.0200333
0.0203062
0.0206194
0.0209392
0.0212372
0.0214992
0.0217158
0.0219019
0.0220691
0.0222335
0.0224244
0.0226585
0.0229218
0.0231859
0.0234194
0.0235915
0.0236945
0.0237512
0.0237955
0.0238606
0.0239793
0.0241651
0.0244039
0.0246719
0.0249452
0.0251924
0.0253935
0.025554
0.025683
0.0257861
0.0258791
0.0259784
0.0260854
0.0262061
0.026359
0.0265489
0.0267709
0.0270227
0.0272844
0.0275287
0.0277402
0.027911
0.0280342
0.0281181
0.0281787
0.0282236
0.0282533
0.0282814
0.028316
0.0283506
0.0283878
0.028443
0.0285109
0.0285792
0.0286527
0.0287372
0.0288179
0.0288858
0.0289498
0.0290135
0.0290619
0.0290938
0.0291219
0.0291416
0.0291415
0.0291324
0.0291179
0.0290871
0.0290425
0.0289957
0.0289381
0.0288644
0.0287878
0.0287103
0.0286179
0.028518
0.02842
0.0283115
0.0281891
0.0280676
0.0279399
0.027801
0.0276668
0.0275364
0.0273973
0.0272583
0.0271235
0.026982
0.0268304
0.0266799
0.0265391
0.0264014
0.0262591
0.0261272
0.0260152
0.0259013
0.0257724
0.0256456
0.0255169
0.0253572
0.0251706
0.0249978
0.0248611
0.0247583
0.0247079
0.0247267
0.0247735
0.0247842
0.024737
0.0246432
0.0244963
0.024271
0.0239812
0.0236965
0.0234696
0.02328
0.023092
0.0229446
0.0229135
0.0229613
0.0229173
0.0226843
0.0223976
0.022298
0.0224575
0.0226738
0.0226741
0.0224346
0.0222544
0.0224669
0.0230516
0.0235341
0.0233617
0.0224813
0.0215682
0.0216505
0.0233295
0.0259667
0.0275348
0.0259482
0.020997
0.0145708
0.0088679
0.00488878
0.00251498
0.00123309
0.00058233
0.000266265
0.000118265
5.09167e-05
2.15684e-05
9.13079e-06
3.55148e-06
1.28514e-06
1.83581e-07
1.93425e-07
6.26259e-07
4.11783e-07
5.25789e-07
1.65245e-07
2.83878e-07
5.59669e-08
7.78662e-08
1.26364e-07
4.45376e-08
1.03976e-07
6.44174e-08
4.81487e-08
4.30191e-08
1.36365e-08
1.73513e-08
4.01201e-09
5.87709e-09
6.86917e-10
1.01037e-09
7.44065e-10
7.60407e-10
4.22918e-10
1.76426e-10
6.81674e-11
1.38377e-11
6.78014e-11
1.1738e-10
1.53705e-10
1.80273e-10
1.92161e-10
1.92463e-10
1.79874e-10
1.56459e-10
1.3128e-10
1.10322e-10
9.01834e-11
7.06723e-11
5.39936e-11
3.95154e-11
2.67398e-11
1.72134e-11
1.10749e-11
6.84604e-12
4.00008e-12
2.31535e-12
1.17915e-12
5.0894e-13
3.71551e-13
1.08834e-13
2.2088e-13
2.40788e-13
6.77597e-14
1.3812e-13
4.7695e-14
6.2334e-14
4.55291e-14
1.92233e-14
2.50911e-14
9.87405e-15
5.52018e-15
1.16689e-14
6.34658e-15
6.24364e-15
1.56611e-15
6.78443e-15
8.3441e-15
4.08441e-15
5.2479e-15
7.21676e-15
5.71206e-15
4.64342e-15
5.56237e-15
5.77694e-15
3.09386e-15
4.63199e-15
4.42931e-15
2.77964e-15
2.22002e-15
2.08945e-15
2.28291e-15
2.13563e-15
2.24436e-15
1.26113e-15
1.50937e-15
1.20126e-15
2.05134e-15
1.4417e-15
1.79933e-15
8.2789e-16
1.27979e-15
1.62948e-15
1.13334e-15
1.49188e-15
9.62238e-16
1.10649e-15
1.03756e-15
9.5775e-16
1.07103e-15
6.95553e-16
1.03175e-15
5.96785e-16
3.3238e-16
4.51895e-16
3.33951e-16
3.60989e-16
6.73645e-17
2.07065e-16
1.18419e-16
1.37252e-16
9.72064e-17
0
0
0
0
0
0
0
0
0
0
0
0
0
0
0
0
0
0
0
0
0
0
0
0
0
0
0
0
0
0
0
0
0
0
0
0
0
0
0
0
0
0
0
0
0
0
0
0
0
0
0
0
0
0
0
0
0
0
0
0
0
0
0
0
0
0
0
0
0
0
0
0
0
0
0
0
0
0
0
0
0
0
0
0
0
0
0
0
0
0
0
0
0
0
0
0
0
0
0
0.04
0.0253838
0.0254537
0.0254052
0.0257332
0.0257091
0.0258604
0.0257709
0.0256945
0.0257569
0.0255577
0.0251267
0.0251491
0.0252741
0.0249699
0.0245666
0.0245141
0.0242239
0.0235988
0.0227272
0.0222352
0.0214428
0.0210044
0.0206314
0.0209848
0.0211813
0.0217091
0.0219514
0.0221799
0.0219074
0.0215609
0.0210551
0.0206611
0.0203365
0.0202373
0.0202619
0.0203736
0.0205145
0.0207057
0.020924
0.0211672
0.0214372
0.0217214
0.0219984
0.0222758
0.0225652
0.0228541
0.0231215
0.0233446
0.0235014
0.0235855
0.0236172
0.0236322
0.0236632
0.0237428
0.0238923
0.0241065
0.0243665
0.0246499
0.0249243
0.0251627
0.0253644
0.0255346
0.0256736
0.0257933
0.0259056
0.0260094
0.0261108
0.0262289
0.0263753
0.0265534
0.026766
0.0270032
0.0272386
0.0274547
0.0276421
0.0277909
0.0279033
0.0279943
0.0280639
0.0281118
0.028153
0.0281957
0.0282303
0.0282673
0.0283238
0.0283932
0.0284618
0.028539
0.0286272
0.0287084
0.0287778
0.0288491
0.0289147
0.0289676
0.0290151
0.0290545
0.0290819
0.0291025
0.0291098
0.0291036
0.0290915
0.0290705
0.0290335
0.0289875
0.0289366
0.0288723
0.0287929
0.0287143
0.0286281
0.0285229
0.0284181
0.0283149
0.0281906
0.0280611
0.0279411
0.0278095
0.0276645
0.0275283
0.0273918
0.0272367
0.0270805
0.0269369
0.0267856
0.0266303
0.0264976
0.0263767
0.0262458
0.0261222
0.0260183
0.0259067
0.0257722
0.0256344
0.0254978
0.0253397
0.0251607
0.0250019
0.0248858
0.0247969
0.024741
0.0247437
0.0247818
0.0247944
0.0247635
0.0247224
0.0246671
0.0245433
0.0243455
0.0241364
0.0239561
0.0237741
0.0235583
0.0233524
0.0232305
0.023173
0.0230433
0.0227526
0.0224211
0.0222811
0.0224022
0.0225794
0.0225468
0.0222873
0.0220971
0.022304
0.0228836
0.0233604
0.0231741
0.0222617