# vtk DataFile Version 3.0
LBM output step 290
ASCII
DATASET STRUCTURED_POINTS
DIMENSIONS 400 100 1
ORIGIN 0 0 0
SPACING 1 1 1
POINT_DATA 40000
SCALARS velocity_magnitude double 1
LOOKUP_TABLE default
0
0
0
0
0
0
0
0
0
0
0
0
0
0
0
0
0
0
0
0
0
0
0
0
0
0
0
0
0
0
0
0
0
0
0
0
0
0
0
0
0
0
0
0
0
0
0
0
0
0
0
0
0
0
0
0
0
0
0
0
0
0
0
0
0
0
0
0
0
0
0
0
0
0
0
0
0
0
0
0
0
0
0
0
0
0
0
0
0
0
0
0
0
0
0
0
0
0
0
0
0
0
0
0
0
0
0
0
0
0
0
0
0
0
0
0
0
0
0
0
0
0
0
0
0
0
0
0
0
0
0
0
0
0
0
0
0
0
0
0
0
0
0
0
0
0
0
0
0
0
0
0
0
0
0
0
0
0
0
0
0
0
0
0
0
0
0
0
0
0
0
0
0
0
0
0
0
0
0
0
0
0
0
0
0
0
0
0
0
0
0
0
0
0
0
0
0
0
0
0
0
0
0
0
0
0
0
0
0
0
0
0
0
0
0
0
0
0
0
0
0
0
0
0
0
0
0
0
0
0
0
0
0
0
0
0
0
0
0
0
0
0
0
0
0
0
0
0
0
0
0
0
0
0
0
0
0
0
0
0
0
0
0
0
0
0
0
0
0
0
0
0
0
0
0
0
0
0
0
0
0
0
0
0
0
0
0
0
0
0
0
0
0
0
0
0
0
0
0
0
0
0
0
0
0
0
0
0
0
0
0
0
0
0
0
0
0
0
0
0
0
0
0
0
0
0
0
0
0
0
0
0
0
0
0
0
0
0
0
0
0
0
0
0
0
0
0
0
0
0
0
0
0
0
0
0
0
0
0
0
0
0
0
0
0
0
0
0
0
0
0
0
0
0
0
0
0
0
0
0
0
0
0
0
0
0
0
0
0
0
0
0
0
0
0
0
0
0
0
0
0.04
0.01472
0.00941878
0.0156108
0.0177324
0.0172966
0.0146619
0.0146833
0.0150744
0.0153951
0.0152122
0.0152906
0.0150481
0.0148085
0.0146014
0.0144357
0.0141674
0.0138648
0.0136651
0.0134048
0.0131757
0.0129042
0.0127016
0.0124194
0.0121467
0.0118091
0.0114157
0.0108785
0.010199
0.0093389
0.00829381
0.00711822
0.00591941
0.00484822
0.0040396
0.00362816
0.00365463
0.00407885
0.00476376
0.00554762
0.0062815
0.00687197
0.00728388
0.00753833
0.00767734
0.00775096
0.00779839
0.00785027
0.00791947
0.00801714
0.00814855
0.00831669
0.00851525
0.00873115
0.0089517
0.00917012
0.00938108
0.00959251
0.0098153
0.0100536
0.0103032
0.0105566
0.010797
0.011001
0.0111539
0.0112636
0.0113477
0.0114271
0.0115288
0.0116739
0.0118636
0.0120902
0.0123418
0.0125935
0.012823
0.0130211
0.0131875
0.0133233
0.0134341
0.0135324
0.0136293
0.0137221
0.0138164
0.0139207
0.0140328
0.0141477
0.0142694
0.0143989
0.014531
0.0146576
0.014781
0.0148993
0.0150013
0.0150843
0.0151573
0.0152151
0.015253
0.0152802
0.0153001
0.015308
0.015309
0.0153073
0.0153019
0.0152906
0.0152777
0.0152665
0.0152528
0.0152385
0.0152286
0.0152186
0.0152077
0.0151968
0.015189
0.0151823
0.0151695
0.0151569
0.0151465
0.015127
0.0151068
0.0150871
0.0150549
0.0150149
0.0149734
0.0149234
0.0148639
0.0147987
0.0147279
0.0146478
0.0145653
0.014498
0.0144501
0.0144069
0.0143569
0.014303
0.0142498
0.0141805
0.0140848
0.014015
0.0140447
0.0141668
0.0143078
0.0144481
0.0146322
0.0148457
0.01498
0.0149902
0.0150149
0.0152364
0.0156553
0.0160863
0.0163869
0.0166461
0.0170706
0.0176739
0.018171
0.0182711
0.0180632
0.0180326
0.0186272
0.0197495
0.0206879
0.0206956
0.0197848
0.0189374
0.0194303
0.0217499
0.0248373
0.0263961
0.0245438
0.0194935
0.0133021
0.00800083
0.00438176
0.00224651
0.00109798
0.000517696
0.000236341
0.0001046
4.54786e-05
1.92338e-05
7.90106e-06
3.07374e-06
1.37296e-06
9.85208e-07
6.2847e-07
6.94286e-07
1.13889e-06
1.66841e-07
1.01719e-06
6.30236e-07
3.46351e-07
6.13463e-07
1.36742e-07
2.77514e-07
2.09304e-07
5.29797e-08
1.24478e-07
2.63774e-08
3.93343e-08
1.91558e-08
9.87831e-09
1.01709e-08
1.53356e-09
1.70381e-09
4.01208e-10
9.9227e-10
5.84397e-10
2.33989e-10
1.17701e-10
7.75399e-11
3.8805e-11
3.78466e-11
5.04184e-11
5.34387e-11
5.24822e-11
4.88692e-11
4.07027e-11
3.35427e-11
2.66202e-11
1.60524e-11
9.16441e-12
9.57348e-12
9.1046e-12
3.5698e-12
1.54257e-12
1.15608e-12
1.24969e-12
1.12048e-12
2.42014e-13
8.17274e-13
4.76086e-13
1.00743e-13
1.01926e-13
2.08574e-13
3.00915e-13
1.87087e-13
1.22289e-13
1.70725e-13
1.76679e-13
1.56992e-13
1.57174e-13
1.65696e-13
1.48875e-13
1.49356e-13
1.49433e-13
1.38669e-13
1.3381e-13
1.31331e-13
1.21716e-13
1.16096e-13
1.07145e-13
1.00123e-13
9.31437e-14
8.66487e-14
7.5118e-14
7.0736e-14
6.38771e-14
5.55472e-14
5.03245e-14
4.69164e-14
3.59471e-14
3.48642e-14
3.16717e-14
2.43501e-14
2.12627e-14
2.01011e-14
1.43474e-14
1.42707e-14
1.11455e-14
8.06306e-15
7.85561e-15
7.07897e-15
4.85053e-15
3.51252e-15
2.68452e-15
2.57433e-15
1.63722e-15
1.36968e-15
5.34903e-16
5.58753e-16
1.10946e-15
1.7085e-16
7.11059e-16
8.07688e-16
1.17448e-15
1.22142e-15
1.71746e-15
1.17267e-15
1.0352e-15
3.58966e-16
2.95229e-16
0
0
0
0
0
0
0
0
0
0
0
0
0
0
0
0
0
0
0
0
0
0
0
0
0
0
0
0
0
0
0
0
0
0
0
0
0
0
0
0
0
0
0
0
0
0
0
0
0
0
0
0
0
0
0
0
0
0
0
0
0
0
0
0
0
0
0
0
0
0
0
0
0
0
0
0
0
0
0
0
0
0
0
0
0
0
0
0
0
0
0
0
0
0
0
0
0
0
0
0
0
0
0
0
0
0
0
0
0
0.04
0.0225544
0.0230377
0.0205327
0.0141399
0.0145368
0.018169
0.0192375
0.0182787
0.0184654
0.0192292
0.0195142
0.0194802
0.0195764
0.019558
0.0193216
0.019239
0.019132
0.0190675
0.0188157
0.018796
0.0186176
0.0185537
0.0183325
0.0182428
0.0179664
0.0176814
0.0172088
0.0166397
0.0158262
0.0148747
0.0137925
0.0127079
0.0117142
0.0109773
0.0105804
0.0105678
0.0108971
0.0114629
0.0121293
0.0127773
0.0133434
0.0137982
0.014145
0.0144002
0.0145902
0.0147401
0.0148694
0.0149986
0.0151447
0.0153146
0.0155109
0.0157276
0.0159572
0.0161953
0.0164376
0.0166952
0.0169785
0.0172842
0.0176098
0.0179459
0.0182714
0.0185663
0.0188185
0.0190244
0.0191925
0.0193434
0.0195019
0.0196852
0.0198995
0.0201487
0.0204285
0.0207212
0.0210113
0.0212932
0.0215587
0.0218006
0.0220213
0.02223
0.0224249
0.022605
0.0227808
0.0229606
0.0231376
0.0233156
0.0235024
0.0236933
0.0238791
0.0240624
0.0242412
0.0244074
0.024555
0.0246892
0.0248099
0.0249102
0.0249924
0.0250655
0.0251219
0.0251618
0.0251931
0.0252133
0.0252212
0.0252219
0.0252124
0.025197
0.025178
0.025153
0.0251237
0.0250932
0.0250599
0.0250205
0.024975
0.0249305
0.0248816
0.0248235
0.0247662
0.0247095
0.0246424
0.0245708
0.0244979
0.0244098
0.0243023
0.0241905
0.0240747
0.0239472
0.0238169
0.0236954
0.0235722
0.0234361
0.0232984
0.0231684
0.0230252
0.02286
0.0227028
0.0225706
0.0224447
0.0223172
0.0222204
0.0221956
0.0222325
0.0222731
0.0223015
0.0223684
0.0224867
0.022568
0.0225456
0.022518
0.0226574
0.0229728
0.0232789
0.0234394
0.0235536
0.0238228
0.0242518
0.0245672
0.0244865
0.0240946
0.0238774
0.0242677
0.0251356
0.0257654
0.0254502
0.0242408
0.0231017
0.0232523
0.0251481
0.0277572
0.0288189
0.0264467
0.0208569
0.0141699
0.00849033
0.0046286
0.00236206
0.00114928
0.000537703
0.000244003
0.000107305
4.55834e-05
1.85699e-05
7.80485e-06
3.0471e-06
8.32923e-07
9.37373e-07
6.47855e-07
9.2368e-07
2.34142e-07
7.83052e-07
5.11644e-07
5.15053e-07
4.67848e-07
2.3364e-07
3.08606e-07
1.49287e-07
1.36234e-07
1.20673e-07
3.75821e-08
6.60998e-08
1.91751e-08
2.23132e-08
8.45172e-09
6.19986e-09
5.06679e-09
2.46597e-09
1.64589e-09
1.40926e-09
1.51081e-09
1.33882e-09
1.11632e-09
9.37407e-10
7.91746e-10
6.67473e-10
5.50551e-10
4.38188e-10
3.34587e-10
2.49664e-10
1.8542e-10
1.35131e-10
9.38749e-11
6.40713e-11
4.43495e-11
2.93809e-11
1.6789e-11
8.96398e-12
5.71264e-12
4.96814e-12
3.16416e-12
1.31928e-12
7.18815e-13
5.40901e-13
8.72148e-13
6.96533e-13
3.29976e-13
2.8043e-13
4.07408e-13
3.90799e-13
2.8517e-13
3.07582e-13
2.86162e-13
2.40585e-13
2.55258e-13
2.59073e-13
2.05242e-13
2.14508e-13
2.18148e-13
1.87604e-13
1.77622e-13
1.85268e-13
1.55726e-13
1.52871e-13
1.53127e-13
1.31739e-13
1.22157e-13
1.25998e-13
1.07122e-13
1.00542e-13
9.71562e-14
8.41381e-14
7.45392e-14
7.74739e-14
6.11548e-14
5.56739e-14
5.31312e-14
4.62557e-14
4.04274e-14
3.71442e-14
3.05383e-14
2.75229e-14
2.59173e-14
2.09482e-14
1.61896e-14
1.66556e-14
1.17807e-14
1.29897e-14
8.62148e-15
7.19756e-15
7.19995e-15
5.81101e-15
5.55568e-15
2.84674e-15
2.75185e-15
3.63465e-15
1.08292e-15
1.88014e-15
6.64143e-16
1.47854e-15
6.23825e-16
5.7331e-16
5.24151e-16
2.35565e-16
2.81368e-16
0
0
0
0
0
0
0
0
0
0
0
0
0
0
0
0
0
0
0
0
0
0
0
0
0
0
0
0
0
0
0
0
0
0
0
0
0
0
0
0
0
0
0
0
0
0
0
0
0
0
0
0
0
0
0
0
0
0
0
0
0
0
0
0
0
0
0
0
0
0
0
0
0
0
0
0
0
0
0
0
0
0
0
0
0
0
0
0
0
0
0
0
0
0
0
0
0
0
0
0
0
0
0
0
0
0
0
0
0
0.04
0.0241914
0.021722
0.0184693
0.0195761
0.0217526
0.020751
0.0196127
0.0205361
0.021734
0.0217626
0.02175
0.0221476
0.0224126
0.0223989
0.0223791
0.0225191
0.0224268
0.0224653
0.0223733
0.0225021
0.0223296
0.0224013
0.0222459
0.0222409
0.0219548
0.0217467
0.0212741
0.020733
0.0199506
0.019122
0.0181939
0.0173387
0.0166112
0.0161286
0.0159042
0.0159572
0.0162292
0.0166337
0.017086
0.0175327
0.0179526
0.0183371
0.0186832
0.0189857
0.0192401
0.0194444
0.019609
0.0197498
0.0198817
0.0200174
0.0201582
0.0203028
0.0204572
0.0206239
0.0208159
0.0210503
0.0213286
0.0216436
0.0219778
0.0223055
0.0226026
0.0228526
0.0230541
0.0232188
0.0233631
0.0235089
0.0236744
0.0238628
0.02407
0.0242941
0.0245258
0.024754
0.0249792
0.025204
0.0254249
0.0256431
0.0258606
0.0260752
0.0262797
0.0264734
0.0266634
0.0268498
0.0270278
0.0272074
0.0273903
0.0275657
0.0277315
0.0278911
0.0280371
0.0281634
0.0282706
0.0283662
0.0284472
0.0285086
0.0285584
0.0286033
0.0286313
0.0286453
0.0286529
0.02865
0.0286323
0.028606
0.0285754
0.0285366
0.0284835
0.0284305
0.0283758
0.0283039
0.0282283
0.028157
0.0280717
0.0279769
0.0278859
0.0277899
0.0276811
0.0275707
0.0274609
0.0273387
0.0272056
0.0270685
0.0269173
0.0267494
0.0265781
0.0264086
0.0262339
0.0260603
0.0258931
0.0257075
0.0254909
0.0252646
0.0250237
0.0247535
0.0244907
0.0242795
0.0241064
0.0239351
0.0237764
0.0236656
0.0235834
0.0234755
0.0233505
0.023283
0.0233014
0.0233306
0.0232902
0.0232271
0.0232763
0.0234672
0.0236465
0.0236763
0.0236457
0.0237691
0.0240776
0.0243111
0.0241906
0.0237799
0.023514
0.0237932
0.0245156
0.0250468
0.0247534
0.0236538
0.0225756
0.0226355
0.0243433
0.0268496
0.028037
0.0259818
0.0207158
0.0142114
0.0085824
0.00471053
0.00241521
0.00118099
0.000556658
0.000253879
0.000112941
4.86312e-05
2.06232e-05
8.48726e-06
3.79193e-06
1.6411e-06
7.82542e-07
5.18899e-07
3.31272e-07
5.77883e-07
4.35852e-07
4.3112e-07
4.00227e-07
3.63708e-07
1.99308e-07
1.90932e-07
1.66098e-07
7.108e-08
1.05819e-07
5.28562e-08
4.18359e-08
3.23215e-08
1.02223e-08
1.33257e-08
2.82914e-09
3.83974e-09
9.82534e-10
9.32787e-10
9.26644e-10
8.98117e-10
7.97686e-10
7.14554e-10
6.51142e-10
5.85898e-10
5.16851e-10
4.45696e-10
3.65492e-10
2.86029e-10
2.20232e-10
1.6716e-10
1.23252e-10
9.07086e-11
6.51973e-11
4.19343e-11
2.4623e-11
1.56272e-11
1.08404e-11
7.19306e-12
3.82164e-12
2.19589e-12
6.33397e-13
9.37118e-13
7.64231e-13
5.10917e-13
3.04869e-13
1.70733e-13
2.47583e-13
3.17918e-13
2.26487e-13
1.54997e-13
1.6072e-13
1.69999e-13
1.32918e-13
1.32032e-13
1.23042e-13
1.01083e-13
9.66609e-14
9.93802e-14
7.92633e-14
7.44111e-14
7.19694e-14
6.29903e-14
5.71024e-14
5.86774e-14
4.71966e-14
4.43708e-14
4.65492e-14
4.28354e-14
3.44965e-14
3.70579e-14
3.35505e-14
2.70594e-14
3.07304e-14
2.60807e-14
1.80505e-14
2.37167e-14
2.00145e-14
1.55402e-14
1.6075e-14
1.473e-14
1.16067e-14
1.33987e-14
1.01283e-14
7.38116e-15
8.17881e-15
6.76706e-15
5.59251e-15
5.86286e-15
3.53007e-15
4.5474e-15
4.17519e-15
3.09407e-15
2.07617e-15
2.17049e-15
1.93238e-15
1.55349e-15
6.67578e-16
9.33597e-16
1.01955e-15
4.86515e-16
5.07501e-16
5.24449e-16
2.4296e-16
2.77556e-16
0
0
0
0
0
0
0
0
0
0
0
0
0
0
0
0
0
0
0
0
0
0
0
0
0
0
0
0
0
0
0
0
0
0
0
0
0
0
0
0
0
0
0
0
0
0
0
0
0
0
0
0
0
0
0
0
0
0
0
0
0
0
0
0
0
0
0
0
0
0
0
0
0
0
0
0
0
0
0
0
0
0
0
0
0
0
0
0
0
0
0
0
0
0
0
0
0
0
0
0
0
0
0
0
0
0
0
0
0
0.04
0.0261241
0.0274075
0.0270188
0.0262708
0.0234468
0.021919
0.0231185
0.0238029
0.0229691
0.0225988
0.0233678
0.023802
0.0236966
0.0237739
0.0240324
0.0241726
0.0240711
0.0242578
0.0242413
0.0243675
0.0242126
0.0243822
0.0241964
0.0241811
0.0238582
0.0236441
0.0230768
0.0224991
0.0217109
0.0209496
0.0201448
0.0195091
0.0190269
0.0187531
0.0186504
0.0187043
0.0188382
0.0190044
0.0191834
0.019389
0.0196408
0.0199513
0.0203113
0.0206837
0.0210251
0.0213091
0.0215311
0.0216965
0.0218245
0.0219299
0.0220211
0.0221085
0.0222045
0.0223251
0.0224932
0.0227216
0.0230048
0.0233236
0.0236507
0.0239529
0.0242061
0.024407
0.0245678
0.0247071
0.0248488
0.0250131
0.0251992
0.0253961
0.0255944
0.0257816
0.025949
0.0261021
0.026252
0.0264067
0.0265735
0.0267613
0.0269651
0.0271716
0.0273785
0.0275848
0.0277803
0.0279632
0.0281403
0.0283135
0.0284745
0.0286209
0.0287563
0.028876
0.0289705
0.0290493
0.0291163
0.0291635
0.0291943
0.0292211
0.0292386
0.029243
0.0292398
0.0292317
0.029211
0.0291814
0.0291458
0.0291018
0.0290504
0.0289951
0.0289292
0.0288573
0.0287815
0.0286939
0.0285973
0.0284986
0.0283926
0.0282814
0.0281698
0.0280528
0.0279278
0.0278004
0.0276667
0.0275235
0.0273746
0.0272197
0.0270548
0.0268816
0.0267101
0.0265455
0.0263775
0.0262057
0.0260323
0.0258332
0.0255936
0.0253296
0.0250537
0.0247669
0.0244906
0.0242699
0.0241102
0.0239586
0.023792
0.0236426
0.0235076
0.0233382
0.0231448
0.0230227
0.0230265
0.0230875
0.0231137
0.0231238
0.0232114
0.0233838
0.0235034
0.0234562
0.023352
0.0234387
0.0237725
0.0240703
0.0239947
0.0235813
0.0232849
0.0235442
0.0242934
0.0249039
0.0247012
0.0236498
0.0225471
0.0225245
0.0241731
0.0267473
0.028139
0.0263019
0.0211329
0.0145792
0.00883003
0.00485131
0.00248701
0.00121302
0.00057049
0.000259162
0.000114005
4.89362e-05
2.04371e-05
7.65394e-06
2.71274e-06
2.02749e-06
6.86814e-07
4.11577e-07
5.10606e-07
6.02146e-07
6.04455e-07
4.41486e-07
6.07672e-07
2.03926e-07
3.02932e-07
2.84259e-07
6.49417e-08
1.90078e-07
7.47316e-08
7.65747e-08
5.67394e-08
1.92316e-08
2.45315e-08
3.08682e-09
7.12113e-09
2.49798e-09
1.66851e-09
7.08374e-10
3.97725e-10
3.5544e-10
3.68174e-10
4.21132e-10
4.31791e-10
4.17965e-10
3.99143e-10
3.61575e-10
3.07432e-10
2.49742e-10
1.97484e-10
1.53607e-10
1.19657e-10
8.90898e-11
5.96777e-11
3.83769e-11
2.61792e-11
1.75101e-11
1.09152e-11
5.73446e-12
3.18175e-12
1.07971e-12
1.43558e-12
8.29037e-13
3.07599e-13
4.16564e-13
7.05029e-14
1.8758e-13
1.29306e-13
6.17434e-14
9.93275e-14
5.16586e-14
4.14698e-14
2.03677e-14
5.34245e-14
4.44053e-14
3.93922e-14
5.33497e-14
4.21366e-14
4.28577e-14
5.2875e-14
4.47283e-14
4.12318e-14
4.86339e-14
3.71083e-14
3.66767e-14
4.07967e-14
3.06098e-14
2.49521e-14
2.68146e-14
2.11271e-14
1.84168e-14
1.48979e-14
1.31434e-14
1.05065e-14
9.82154e-15
9.19519e-15
4.2522e-15
2.55599e-15
5.2499e-15
1.34923e-15
1.69656e-15
1.18585e-15
2.24495e-15
1.01758e-15
1.88718e-15
1.75928e-15
2.33554e-15
7.58255e-16
2.19855e-15
1.97991e-15
1.581e-15
2.96064e-15
1.5823e-15
1.15988e-15
1.91796e-15
8.1815e-16
1.24004e-15
2.19701e-16
6.81152e-16
9.31002e-16
3.30054e-16
5.08863e-16
4.29119e-16
2.44073e-16
2.94985e-16
0
0
0
0
0
0
0
0
0
0
0
0
0
0
0
0
0
0
0
0
0
0
0
0
0
0
0
0
0
0
0
0
0
0
0
0
0
0
0
0
0
0
0
0
0
0
0
0
0
0
0
0
0
0
0
0
0
0
0
0
0
0
0
0
0
0
0
0
0
0
0
0
0
0
0
0
0
0
0
0
0
0
0
0
0
0
0
0
0
0
0
0
0
0
0
0
0
0
0
0
0
0
0
0
0
0
0
0
0
0.04
0.0266513
0.0277594
0.026434
0.0256027
0.0254666
0.0261785
0.0252891
0.023712
0.0237272
0.0245209
0.0244428
0.0239899
0.0242314
0.0246743
0.0246769
0.0246725
0.0247715
0.0250045
0.0248693
0.0250262
0.0249362
0.0250647
0.0247871
0.024781
0.0243932
0.0240747
0.023406
0.0228137
0.0220172
0.0213359
0.020718
0.0203369
0.0200944
0.020022
0.020024
0.0200393
0.0200026
0.019931
0.0198608
0.0198538
0.0199624
0.0202065
0.0205557
0.0209515
0.0213403
0.0216812
0.0219529
0.0221563
0.0223024
0.0223972
0.0224592
0.0225114
0.0225781
0.0226904
0.0228704
0.0231184
0.0234159
0.0237275
0.0240167
0.0242564
0.0244413
0.0245894
0.0247259
0.0248765
0.0250613
0.0252794
0.0255114
0.0257377
0.0259385
0.0260992
0.0262241
0.0263298
0.0264298
0.0265417
0.0266801
0.026844
0.0270284
0.0272309
0.0274444
0.0276597
0.02787
0.0280773
0.0282769
0.0284557
0.0286123
0.028751
0.0288644
0.0289516
0.029018
0.0290698
0.0291073
0.0291307
0.0291456
0.0291569
0.0291559
0.0291459
0.029133
0.0291145
0.0290859
0.0290524
0.0290167
0.0289761
0.0289231
0.0288664
0.0288102
0.0287402
0.0286573
0.0285785
0.0284899
0.0283842
0.0282809
0.0281799
0.0280639
0.0279405
0.0278226
0.0276966
0.0275511
0.0274074
0.0272732
0.0271314
0.0269852
0.0268477
0.026712
0.0265616
0.0263968
0.0262314
0.0260597
0.0258669
0.0256556
0.0254299
0.0251909
0.0249385
0.0246871
0.024475
0.0243144
0.0241672
0.0240015
0.0238247
0.0236444
0.0234374
0.0232106
0.0230584
0.0230645
0.0231706
0.0232505
0.0232874
0.0233687
0.0235101
0.0235901
0.0235107
0.0233688
0.023387
0.0236389
0.0238992
0.023861
0.0235267
0.0232853
0.0235256
0.0241846
0.0247073
0.024503
0.0235373
0.022524
0.0225007
0.0240471
0.026516
0.0279154
0.0262029
0.021173
0.0146928
0.00894212
0.00492698
0.00253415
0.00124024
0.000583911
0.000267133
0.000118442
5.11802e-05
2.16628e-05
9.26211e-06
3.6068e-06
8.02557e-07
8.88955e-07
5.72419e-07
5.48009e-07
2.96555e-07
7.66171e-07
3.58537e-07
5.00648e-07
4.36143e-07
8.49601e-08
2.77623e-07
1.81825e-07
7.86434e-08
1.46978e-07
2.6467e-08
6.52259e-08
2.65591e-08
1.77545e-08
1.29165e-08
3.56914e-09
4.40682e-09
1.7218e-10
9.8967e-10
2.66318e-10
3.08052e-10
3.6485e-10
4.03265e-10
4.09287e-10
4.12171e-10
4.01239e-10
3.69543e-10
3.1745e-10
2.56137e-10
2.0163e-10
1.62472e-10
1.27589e-10
9.1637e-11
6.3075e-11
4.39324e-11
2.90201e-11
1.75545e-11
1.09532e-11
6.28716e-12
3.73537e-12
2.51134e-12
1.03096e-12
9.54235e-13
2.8099e-13
2.94356e-13
3.1732e-13
2.20512e-14
1.79782e-13
1.19304e-13
6.3381e-14
6.24661e-14
2.72916e-14
6.24785e-14
6.94956e-14
5.24427e-14
4.41673e-14
5.78231e-14
5.66229e-14
4.8056e-14
5.67059e-14
5.14542e-14
4.51584e-14
4.98601e-14
4.45026e-14
3.98048e-14
4.37655e-14
3.34629e-14
2.70747e-14
3.19561e-14
2.48454e-14
1.73925e-14
2.02001e-14
1.47568e-14
1.17823e-14
1.25272e-14
9.10977e-15
5.84876e-15
5.63965e-15
6.23683e-15
1.41562e-15
2.49986e-15
1.33867e-15
1.89288e-15
1.21018e-15
2.09579e-15
1.01356e-15
1.94483e-15
1.45557e-15
1.41615e-15
2.03972e-15
1.17397e-15
2.89754e-15
1.69755e-15
7.53254e-16
2.08851e-15
7.81242e-16
9.41813e-16
4.94174e-16
5.26099e-16
1.04617e-15
1.93948e-16
4.68427e-16
4.40674e-16
2.46428e-16
2.73295e-16
0
0
0
0
0
0
0
0
0
0
0
0
0
0
0
0
0
0
0
0
0
0
0
0
0
0
0
0
0
0
0
0
0
0
0
0
0
0
0
0
0
0
0
0
0
0
0
0
0
0
0
0
0
0
0
0
0
0
0
0
0
0
0
0
0
0
0
0
0
0
0
0
0
0
0
0
0
0
0
0
0
0
0
0
0
0
0
0
0
0
0
0
0
0
0
0
0
0
0
0
0
0
0
0
0
0
0
0
0
0.04
0.0246171
0.0251096
0.0262618
0.0269843
0.0267039
0.0260762
0.0251603
0.0252766
0.0254895
0.0248334
0.0242655
0.0245991
0.0249748
0.0248262
0.0246935
0.0249852
0.0250856
0.0251237
0.0250065
0.025249
0.0250813
0.025133
0.0248489
0.0248009
0.0242761
0.0238698
0.0231461
0.0225152
0.0217328
0.0211991
0.0207997
0.0206617
0.0206639
0.0207933
0.0208795
0.020856
0.0206886
0.0204288
0.0201523
0.0199643
0.0199392
0.0200929
0.0203898
0.0207737
0.0211852
0.0215672
0.0218891
0.0221389
0.0223107
0.0224161
0.0224826
0.0225413
0.0226325
0.0227854
0.0230054
0.023274
0.0235595
0.0238239
0.0240359
0.024191
0.0243118
0.0244268
0.0245659
0.0247566
0.0249992
0.0252705
0.0255473
0.0258024
0.0260094
0.0261658
0.0262825
0.0263734
0.0264548
0.0265477
0.0266629
0.0267985
0.0269605
0.0271533
0.0273633
0.0275852
0.0278186
0.0280499
0.0282624
0.0284503
0.0286131
0.0287453
0.0288386
0.0289085
0.0289668
0.0290043
0.0290236
0.0290424
0.0290537
0.0290503
0.0290413
0.0290335
0.0290182
0.028995
0.0289726
0.0289489
0.028913
0.0288777
0.0288422
0.0287902
0.0287318
0.0286736
0.0285986
0.0285143
0.0284279
0.0283317
0.0282292
0.0281272
0.0280184
0.0279004
0.0277777
0.0276494
0.0275085
0.027362
0.0272244
0.0270957
0.0269669
0.0268455
0.0267382
0.0266194
0.0264709
0.026305
0.0261278
0.025933
0.025726
0.0255315
0.0253621
0.0251915
0.0250076
0.0248348
0.0246703
0.0244819
0.024261
0.0240305
0.023806
0.0235737
0.0233417
0.023186
0.0231777
0.0232791
0.0233773
0.0234275
0.0234926
0.0235927
0.0236091
0.0234452
0.0232203
0.0231834
0.0234214
0.0237073
0.0237112
0.0233894
0.0231011
0.0232687
0.0239033
0.0244809
0.0243662
0.023447
0.0223936
0.0222743
0.023755
0.0262783
0.0278665
0.0263786
0.0214784
0.0149931
0.00916483
0.00506316
0.002605
0.00127535
0.000599979
0.000273404
0.000121035
5.14677e-05
2.11732e-05
9.03864e-06
3.90123e-06
1.40795e-06
3.22497e-07
4.89967e-07
2.55278e-07
9.24489e-07
3.58254e-07
5.68168e-07
4.36624e-07
1.0005e-07
2.98521e-07
1.97441e-07
1.02938e-07
1.77662e-07
3.60683e-08
8.60597e-08
3.08788e-08
2.73555e-08
1.62765e-08
6.85684e-09
5.58192e-09
5.95851e-10
1.25616e-09
2.96411e-10
2.78666e-10
3.76085e-10
4.25256e-10
4.21085e-10
4.38972e-10
4.45926e-10
4.33555e-10
3.9249e-10
3.31171e-10
2.6847e-10
2.19548e-10
1.76457e-10
1.34875e-10
9.97916e-11
7.1261e-11
4.686e-11
2.98049e-11
1.99195e-11
1.24248e-11
7.15829e-12
4.02047e-12
2.12237e-12
9.70001e-13
7.53036e-14
5.34966e-13
4.85986e-13
1.22988e-13
2.96183e-13
6.06717e-14
1.48949e-13
1.04333e-13
5.0922e-14
3.94503e-14
9.09012e-15
2.57901e-14
6.19238e-15
1.60533e-14
1.27383e-14
1.75158e-14
1.85729e-14
1.58559e-14
1.86653e-14
2.21482e-14
1.85933e-14
1.96886e-14
2.20672e-14
1.79349e-14
1.55457e-14
1.45698e-14
1.50828e-14
1.32822e-14
6.83724e-15
9.2302e-15
7.88532e-15
3.71309e-15
5.83759e-15
4.10397e-15
2.01411e-15
1.23321e-15
3.59656e-15
2.28012e-15
2.15956e-15
1.15282e-15
4.26067e-15
1.03669e-15
2.598e-15
2.13441e-15
1.55147e-15
2.76356e-15
1.09389e-15
2.22138e-15
1.49385e-15
2.27414e-15
2.25113e-15
7.71186e-16
1.91034e-15
8.88747e-16
7.44405e-16
5.71059e-16
3.56611e-16
1.09661e-15
2.14321e-16
4.78985e-16
3.81781e-16
2.19015e-16
2.63883e-16
0
0
0
0
0
0
0
0
0
0
0
0
0
0
0
0
0
0
0
0
0
0
0
0
0
0
0
0
0
0
0
0
0
0
0
0
0
0
0
0
0
0
0
0
0
0
0
0
0
0
0
0
0
0
0
0
0
0
0
0
0
0
0
0
0
0
0
0
0
0
0
0
0
0
0
0
0
0
0
0
0
0
0
0
0
0
0
0
0
0
0
0
0
0
0
0
0
0
0
0
0
0
0
0
0
0
0
0
0
0.04
0.0247913
0.0255101
0.0258566
0.0259422
0.0258768
0.0258828
0.0260625
0.0260521
0.0251782
0.0247441
0.0251312
0.0252288
0.0247668
0.024716
0.0250601
0.0251914
0.0249513
0.0250918
0.0251344
0.0252459
0.0249602
0.0250639
0.0247504
0.0245555
0.0239363
0.0234944
0.0226942
0.0220349
0.0213653
0.0210261
0.0208355
0.0209375
0.0211624
0.0214143
0.0215149
0.0214372
0.0211667
0.0207766
0.0203843
0.02011
0.020008
0.0200817
0.0203037
0.0206232
0.0209819
0.0213407
0.0216733
0.0219487
0.0221565
0.0223092
0.0224293
0.0225508
0.0227109
0.0229246
0.023181
0.0234514
0.0236976
0.0238865
0.0240105
0.024091
0.0241621
0.02426
0.0244172
0.0246432
0.0249201
0.0252234
0.0255241
0.0257905
0.0260078
0.0261812
0.0263162
0.0264244
0.0265242
0.026623
0.0267249
0.0268446
0.0269884
0.0271553
0.0273479
0.0275674
0.0277995
0.0280244
0.0282344
0.0284252
0.0285802
0.0286985
0.0287907
0.0288607
0.0289069
0.0289367
0.028957
0.0289702
0.0289719
0.0289686
0.0289643
0.0289566
0.0289452
0.0289312
0.028916
0.0289019
0.0288743
0.0288385
0.0288066
0.0287613
0.0286971
0.0286374
0.028573
0.0284866
0.0283951
0.0283086
0.0282045
0.0280874
0.0279775
0.0278599
0.0277242
0.0275959
0.0274719
0.0273303
0.0271915
0.0270743
0.0269515
0.0268189
0.0267044
0.0265929
0.0264475
0.0262785
0.0261165
0.0259552
0.0257832
0.0256344
0.0255309
0.0254319
0.0253029
0.0251552
0.0249922
0.024783
0.0245194
0.0242554
0.024026
0.0238014
0.0235766
0.0234218
0.0233954
0.0234643
0.0235369
0.0235698
0.0235999
0.0236405
0.0236
0.0233963
0.0231354
0.0230576
0.0232571
0.0235211
0.0235327
0.0232444
0.0229826
0.0231385
0.0237326
0.0242817
0.0241768
0.0232897
0.0222515
0.022114
0.0235594
0.0260706
0.0277163
0.0263524
0.0215684
0.0151214
0.00927094
0.00513536
0.00264524
0.0012956
0.000611744
0.000278834
0.000123824
5.36514e-05
2.24387e-05
8.6843e-06
3.34768e-06
1.93761e-06
1.17188e-06
3.5515e-07
8.16755e-07
2.82073e-07
1.02163e-06
1.47126e-07
5.93252e-07
4.23071e-07
8.55934e-08
3.42155e-07
1.57537e-07
1.42696e-07
1.49568e-07
2.08287e-08
7.27478e-08
1.36767e-08
2.30986e-08
9.54778e-09
4.59341e-09
3.45934e-09
6.1244e-10
8.78439e-10
2.49029e-10
3.8528e-10
3.86434e-10
4.30482e-10
4.58437e-10
4.67085e-10
4.44684e-10
3.97581e-10
3.39709e-10
2.8649e-10
2.35912e-10
1.87698e-10
1.45102e-10
1.07439e-10
7.41088e-11
5.03454e-11
3.50259e-11
2.26891e-11
1.3893e-11
7.44511e-12
4.46634e-12
2.0405e-12
1.40446e-12
1.26807e-12
3.70999e-13
4.91822e-13
3.20049e-13
1.16745e-13
2.8677e-13
1.12715e-13
1.10029e-13
5.25622e-14
4.25786e-14
4.98424e-14
3.40403e-14
1.06628e-14
3.75976e-15
9.89654e-15
9.24347e-15
1.00899e-14
4.18733e-15
3.10812e-15
1.43211e-14
8.95311e-15
7.44717e-15
1.6495e-14
9.72629e-15
4.87612e-15
1.36445e-14
8.30703e-15
6.47136e-15
6.47576e-15
5.04016e-15
3.90421e-15
3.15003e-15
4.10595e-15
1.59499e-15
1.70845e-15
9.91952e-16
2.23258e-15
1.84839e-15
3.01955e-15
1.3127e-15
4.54328e-15
8.13731e-16
2.34288e-15
3.12955e-15
1.23097e-15
2.90443e-15
1.38859e-15
1.93248e-15
2.02969e-15
1.65127e-15
2.40315e-15
8.39076e-16
1.64453e-15
1.03533e-15
7.92258e-16
6.55579e-16
3.58765e-16
9.09948e-16
2.06366e-16
4.41111e-16
4.13796e-16
2.1175e-16
2.50185e-16
0
0
0
0
0
0
0
0
0
0
0
0
0
0
0
0
0
0
0
0
0
0
0
0
0
0
0
0
0
0
0
0
0
0
0
0
0
0
0
0
0
0
0
0
0
0
0
0
0
0
0
0
0
0
0
0
0
0
0
0
0
0
0
0
0
0
0
0
0
0
0
0
0
0
0
0
0
0
0
0
0
0
0
0
0
0
0
0
0
0
0
0
0
0
0
0
0
0
0
0
0
0
0
0
0
0
0
0
0
0.04
0.025416
0.0259219
0.0255487
0.0258408
0.0261061
0.0261255
0.0259232
0.0255908
0.0254425
0.0256253
0.0253562
0.0248816
0.0249225
0.0252458
0.0251356
0.0249724
0.0250209
0.0252894
0.0250899
0.0251127
0.0249444
0.0250073
0.0245207
0.0242584
0.0236065
0.0230521
0.0221846
0.0216068
0.0210847
0.0209126
0.0209466
0.0212757
0.0216358
0.0219339
0.0220349
0.0219171
0.0215843
0.0211528
0.0207407
0.0204315
0.0202617
0.0202407
0.0203443
0.0205347
0.0207859
0.0210788
0.0213826
0.0216678
0.0219237
0.0221487
0.0223593
0.0225858
0.0228429
0.0231207
0.0233978
0.023641
0.0238171
0.0239153
0.0239589
0.0239849
0.0240299
0.0241357
0.0243221
0.0245709
0.0248609
0.0251695
0.0254608
0.0257177
0.025943
0.0261377
0.0263043
0.0264528
0.0265879
0.0267071
0.0268182
0.0269385
0.0270709
0.0272231
0.0274066
0.0276098
0.0278142
0.0280172
0.0282078
0.0283708
0.028501
0.0286094
0.0287012
0.0287676
0.0288098
0.0288471
0.0288763
0.028888
0.028893
0.0289025
0.0289064
0.0289031
0.028903
0.0289046
0.0288942
0.0288789
0.0288656
0.0288378
0.028793
0.0287501
0.028696
0.0286213
0.0285474
0.028472
0.028378
0.0282792
0.0281783
0.0280649
0.0279416
0.0278154
0.0276869
0.0275573
0.0274253
0.027294
0.0271693
0.0270487
0.0269217
0.0267897
0.0266629
0.0265326
0.0263806
0.026218
0.0260723
0.0259406
0.0258142
0.0257167
0.0256597
0.0256113
0.0255327
0.0254155
0.0252657
0.0250625
0.0247942
0.0245175
0.0242877
0.0240902
0.023901
0.0237601
0.023722
0.0237446
0.0237263
0.0236565
0.0236141
0.0236163
0.0235562
0.0233326
0.0230263
0.0228734
0.0230102
0.0232746
0.0233462
0.0231111
0.0228359
0.02292
0.0234493
0.0240024
0.0239638
0.023139
0.0220991
0.0218954
0.0232831
0.0258292
0.0276225
0.0264494
0.0217967
0.0153747
0.00946704
0.00525675
0.00271449
0.00133049
0.000627404
0.000286265
0.000126571
5.47211e-05
2.30751e-05
9.45619e-06
3.42131e-06
6.35936e-07
3.37028e-07
1.18461e-06
3.8619e-07
9.46064e-07
6.98941e-08
5.64121e-07
2.02268e-07
1.61113e-07
2.47589e-07
9.09564e-08
1.59098e-07
1.21315e-07
5.7155e-08
7.46951e-08
1.75362e-08
2.90758e-08
5.60491e-09
7.67359e-09
2.74739e-09
2.15029e-09
8.1707e-10
3.27889e-10
2.92561e-10
2.45284e-10
3.46943e-10
4.13471e-10
4.54591e-10
4.60408e-10
4.44684e-10
4.06864e-10
3.57321e-10
2.99136e-10
2.43874e-10
1.97188e-10
1.54585e-10
1.13488e-10
8.12689e-11
5.793e-11
3.82755e-11
2.31024e-11
1.39012e-11
8.52766e-12
4.30928e-12
2.61388e-12
1.38274e-12
6.74703e-13
4.80021e-13
1.64266e-13
3.01596e-13
3.37093e-13
1.11955e-13
1.99674e-13
5.13873e-14
9.15049e-14
7.23249e-14
3.45039e-14
2.14104e-14
1.10659e-14
1.07402e-14
1.15311e-14
9.85966e-15
1.53562e-14
5.86282e-15
1.02524e-14
1.6513e-14
1.01939e-14
9.91235e-15
1.77103e-14
1.2658e-14
5.38966e-15
1.44519e-14
1.08554e-14
5.85954e-15
9.45867e-15
6.85431e-15
3.07526e-15
4.33577e-15
5.57322e-15
1.66651e-15
2.13986e-15
9.06588e-16
2.13484e-15
1.19104e-15
3.32712e-15
1.63477e-15
3.06388e-15
9.17995e-16
1.61233e-15
3.1329e-15
1.2386e-15
2.20081e-15
1.62009e-15
1.4983e-15
1.96771e-15
1.36085e-15
2.11256e-15
7.66442e-16
1.60721e-15
1.05331e-15
7.39611e-16
4.5861e-16
3.77851e-16
7.50187e-16
1.30601e-16
3.83291e-16
3.43545e-16
1.94289e-16
2.42886e-16
0
0
0
0
0
0
0
0
0
0
0
0
0
0
0
0
0
0
0
0
0
0
0
0
0
0
0
0
0
0
0
0
0
0
0
0
0
0
0
0
0
0
0
0
0
0
0
0
0
0
0
0
0
0
0
0
0
0
0
0
0
0
0
0
0
0
0
0
0
0
0
0
0
0
0
0
0
0
0
0
0
0
0
0
0
0
0
0
0
0
0
0
0
0
0
0
0
0
0
0
0
0
0
0
0
0
0
0
0
0.04
0.0253895
0.025459
0.0254123
0.0257386
0.0257085
0.0258499
0.0257516
0.0256672
0.0257253
0.0255292
0.0251166
0.0251755
0.025359
0.025162
0.0249203
0.0251494
0.0252386
0.0251777
0.0249448
0.0251572
0.024923
0.0247802
0.024254
0.0239876
0.0231939
0.0225333
0.0217239
0.0212622
0.0208684
0.020906
0.0211745
0.021641
0.0220438
0.0223401
0.0223966
0.0222183
0.0218737
0.0214903
0.0211335
0.0208479
0.0206582
0.0205577
0.0205238
0.0205562
0.0206669
0.0208459
0.0210734
0.0213415
0.0216348
0.0219426
0.0222736
0.0226276
0.0229849
0.0233173
0.0235924
0.0237798
0.0238726
0.0238964
0.0238908
0.023896
0.0239569
0.0240972
0.0243043
0.0245588
0.0248396
0.0251144
0.0253644
0.0255969
0.0258154
0.026019
0.0262174
0.0264097
0.0265826
0.0267416
0.0268938
0.0270398
0.0271904
0.0273576
0.0275342
0.0277076
0.0278767
0.0280388
0.0281748
0.0282888
0.028397
0.0284923
0.0285652
0.0286297
0.0286891
0.028736
0.0287671
0.0287936
0.0288202
0.0288416
0.0288581
0.0288753
0.0288871
0.0288949
0.0288967
0.0288841
0.0288666
0.0288454
0.0288032
0.0287524
0.0287003
0.028629
0.0285427
0.0284597
0.028368
0.0282571
0.0281471
0.0280429
0.0279167
0.0277806
0.0276615
0.0275402
0.0274061
0.0272834
0.0271672
0.0270336
0.0268862
0.0267403
0.0265968
0.0264535
0.0263135
0.026183
0.0260676
0.0259621
0.0258626
0.0257857
0.0257406
0.0257031
0.0256399
0.0255463
0.025425
0.0252569
0.0250429
0.0248307
0.0246617
0.0245196
0.02436
0.0241967
0.0240914
0.0240332
0.0239365
0.023784
0.0236586
0.0235945
0.0234886
0.0232346
0.0229136
0.0227535
0.0228733
0.0231135
0.0231693
0.0229307
0.0226525
0.0227297
0.0232583
0.0238188
0.02378
0.0229361
0.0218671
0.0216357
0.0230103
0.0255892
0.0274827
0.0264453
0.0218954
0.0155065
0.00957694
0.00532414
0.00275076
0.0013493
0.000635674
0.000290609
0.000128542
5.51415e-05
2.29381e-05
9.62861e-06
4.57937e-06
1.66563e-06
3.43746e-07
6.07058e-07
1.06379e-06
6.77191e-07
9.30485e-07
6.15961e-08
5.76828e-07
3.54818e-07
1.342e-07
3.63503e-07
1.03966e-07
1.84443e-07
1.22676e-07
5.04206e-08
6.50213e-08
2.52266e-09
2.19428e-08
5.42395e-09
5.26898e-09
2.33838e-09
7.75941e-10
6.65342e-10
7.53643e-11
2.64546e-10
3.15234e-10
3.83603e-10
4.31851e-10
4.59547e-10
4.53255e-10
4.17844e-10
3.61341e-10
3.03487e-10
2.53696e-10
2.08858e-10
1.64142e-10
1.24492e-10
9.04804e-11
6.08139e-11
3.90437e-11
2.57452e-11
1.64717e-11
9.16577e-12