# vtk DataFile Version 3.0
LBM output step 1210
ASCII
DATASET STRUCTURED_POINTS
DIMENSIONS 400 100 1
ORIGIN 0 0 0
SPACING 1 1 1
POINT_DATA 40000
SCALARS velocity_magnitude double 1
LOOKUP_TABLE default
0
0
0
0
0
0
0
0
0
0
0
0
0
0
0
0
0
0
0
0
0
0
0
0
0
0
0
0
0
0
0
0
0
0
0
0
0
0
0
0
0
0
0
0
0
0
0
0
0
0
0
0
0
0
0
0
0
0
0
0
0
0
0
0
0
0
0
0
0
0
0
0
0
0
0
0
0
0
0
0
0
0
0
0
0
0
0
0
0
0
0
0
0
0
0
0
0
0
0
0
0
0
0
0
0
0
0
0
0
0
0
0
0
0
0
0
0
0
0
0
0
0
0
0
0
0
0
0
0
0
0
0
0
0
0
0
0
0
0
0
0
0
0
0
0
0
0
0
0
0
0
0
0
0
0
0
0
0
0
0
0
0
0
0
0
0
0
0
0
0
0
0
0
0
0
0
0
0
0
0
0
0
0
0
0
0
0
0
0
0
0
0
0
0
0
0
0
0
0
0
0
0
0
0
0
0
0
0
0
0
0
0
0
0
0
0
0
0
0
0
0
0
0
0
0
0
0
0
0
0
0
0
0
0
0
0
0
0
0
0
0
0
0
0
0
0
0
0
0
0
0
0
0
0
0
0
0
0
0
0
0
0
0
0
0
0
0
0
0
0
0
0
0
0
0
0
0
0
0
0
0
0
0
0
0
0
0
0
0
0
0
0
0
0
0
0
0
0
0
0
0
0
0
0
0
0
0
0
0
0
0
0
0
0
0
0
0
0
0
0
0
0
0
0
0
0
0
0
0
0
0
0
0
0
0
0
0
0
0
0
0
0
0
0
0
0
0
0
0
0
0
0
0
0
0
0
0
0
0
0
0
0
0
0
0
0
0
0
0
0
0
0
0
0
0
0
0
0
0
0
0
0
0
0
0
0
0
0
0
0
0
0
0
0
0
0
0
0
0
0
0.04
0.0138816
0.00826355
0.0127849
0.015301
0.0149431
0.0118969
0.0112338
0.011263
0.0113144
0.0109773
0.0109827
0.0107245
0.0105539
0.0104298
0.0104211
0.0102498
0.0101319
0.0100281
0.00994926
0.00980936
0.00971799
0.00961948
0.00952191
0.00940647
0.00932409
0.00923038
0.00913915
0.00904659
0.00897149
0.00888591
0.00880528
0.00872609
0.0086536
0.00857391
0.00849995
0.00842691
0.00835646
0.00828343
0.00821606
0.00814932
0.00808461
0.00802055
0.00796075
0.00790161
0.00784414
0.00778848
0.00773471
0.0076823
0.00763038
0.00758142
0.00753245
0.00748721
0.00744087
0.00740027
0.00735751
0.00732173
0.00728177
0.00725114
0.00721425
0.00718792
0.00715304
0.0071317
0.00709885
0.00708118
0.00705041
0.00703735
0.00700766
0.00699791
0.00697044
0.00696364
0.00693658
0.00693278
0.00690756
0.00690469
0.00688047
0.00688012
0.00685702
0.00685634
0.00683554
0.00683616
0.00681577
0.00681582
0.00679857
0.00679836
0.00678147
0.00678136
0.00676798
0.00676713
0.00675551
0.00675703
0.0067509
0.00675561
0.00675839
0.00677568
0.00679708
0.00683739
0.00689356
0.00697795
0.00708902
0.00723841
0.00742627
0.00765792
0.00793063
0.00824456
0.00859074
0.00896036
0.00933974
0.00971391
0.0100636
0.0103717
0.0106212
0.0107982
0.0108942
0.0109102
0.0108549
0.0107448
0.0106034
0.0104546
0.0103159
0.0101973
0.0101008
0.0100211
0.00995127
0.00988995
0.00983959
0.00980348
0.00978485
0.00978356
0.00979149
0.00979698
0.00979133
0.00976905
0.00972758
0.00967067
0.00960575
0.00953849
0.00947339
0.00941601
0.00936886
0.00932963
0.00929503
0.00926197
0.00922545
0.00918157
0.00913076
0.00907497
0.00901501
0.00895274
0.00889129
0.00883186
0.00877425
0.00871972
0.0086703
0.00862705
0.00859162
0.00856695
0.00855487
0.00855493
0.00856602
0.00858676
0.00861438
0.00864549
0.00867753
0.00870835
0.00873538
0.00875649
0.00877066
0.00877729
0.00877611
0.00876785
0.00875402
0.00873608
0.00871523
0.00869254
0.00866846
0.00864257
0.00861422
0.0085829
0.00854819
0.00851005
0.00846924
0.00842713
0.00838527
0.00834517
0.00830811
0.00827467
0.00824463
0.00821725
0.00819157
0.00816658
0.00814148
0.00811592
0.0080899
0.00806363
0.00803746
0.00801187
0.00798737
0.00796456
0.00794412
0.0079268
0.00791324
0.00790387
0.00789883
0.0078979
0.00790057
0.00790621
0.00791419
0.00792402
0.00793538
0.00794818
0.00796249
0.00797845
0.00799622
0.00801587
0.0080373
0.0080602
0.00808401
0.00810802
0.00813133
0.00815302
0.00817219
0.00818804
0.00819997
0.00820756
0.00821071
0.00820961
0.0082048
0.00819714
0.00818772
0.0081777
0.00816816
0.00815991
0.00815339
0.00814864
0.00814529
0.00814268
0.00813997
0.00813632
0.00813101
0.00812351
0.00811356
0.00810118
0.00808661
0.00807028
0.0080527
0.00803445
0.00801607
0.00799804
0.00798083
0.00796488
0.00795066
0.0079387
0.00792959
0.0079239
0.00792213
0.00792465
0.0079316
0.00794287
0.00795808
0.00797662
0.00799774
0.00802062
0.0080445
0.00806874
0.0080929
0.00811667
0.0081399
0.00816249
0.00818429
0.00820512
0.00822464
0.00824245
0.00825805
0.00827097
0.00828086
0.00828756
0.00829119
0.00829213
0.008291
0.00828851
0.0082853
0.00828182
0.00827816
0.00827407
0.00826892
0.00826178
0.00825159
0.0082373
0.00821801
0.00819321
0.0081629
0.0081277
0.00808893
0.00804851
0.00800887
0.00797258
0.00794205
0.00791913
0.00790479
0.00789892
0.00790043
0.00790744
0.00791777
0.00792935
0.00794062
0.00795082
0.0079599
0.0079684
0.0079771
0.00798674
0.00799786
0.00801078
0.0080257
0.00804279
0.00806233
0.00808458
0.00810966
0.00813735
0.00816697
0.00819738
0.00822717
0.00825481
0.00827887
0.00829809
0.00831149
0.00831827
0.00831791
0.00831018
0.00829526
0.00827374
0.00824661
0.00821515
0.00818072
0.00814467
0.00810821
0.00807239
0.00803814
0.00800623
0.00797723
0.00795142
0.00792879
0.00790902
0.0078915
0.00787549
0.00786019
0.00784487
0.00782892
0.00781194
0.00779377
0.00777447
0.00775435
0.00773389
0.00771366
0.00769431
0.00767648
0.00766074
0.00764759
0.00763735
0.00763014
0.00762583
0.00762404
0.00762421
0.00762564
0.00762755
0.00762925
0.00763012
0.00762973
0.00762782
0.00762437
0.0076195
0.00761355
0.00760703
0.00760056
0.00759494
0.00759104
0.00758982
0.00759224
0.00759924
0.00761166
0.00763022
0.00765542
0.00768752
0.00772649
0.00777196
0.00782335
0.00787979
0.00794024
0.00800355
0.00806854
0.00813387
0.00819828
0.00826063
0.00831956
0.00837364
0.00842224
0.00846579
0.00850146
0.00852781
0.00852781
0.04
0.0230203
0.0247136
0.0221767
0.0150713
0.01423
0.017257
0.0179219
0.0162875
0.0156395
0.0157357
0.015566
0.0152173
0.015157
0.0149936
0.0147203
0.0145368
0.0144722
0.0143008
0.0141135
0.013988
0.0138831
0.0137279
0.0136
0.0135025
0.0133996
0.0132853
0.0132018
0.0131287
0.013049
0.0129729
0.0129133
0.0128502
0.012782
0.012718
0.0126586
0.0125934
0.0125283
0.0124681
0.0124097
0.0123506
0.0122959
0.0122464
0.0121989
0.0121542
0.0121141
0.0120783
0.0120438
0.0120137
0.0119856
0.0119629
0.0119398
0.0119235
0.0119067
0.0118986
0.0118868
0.0118863
0.0118808
0.0118885
0.0118866
0.0119026
0.0119058
0.0119286
0.0119346
0.0119662
0.0119754
0.0120124
0.0120247
0.0120698
0.0120823
0.0121319
0.012148
0.0122023
0.0122168
0.0122759
0.0122937
0.0123533
0.0123704
0.0124349
0.0124533
0.0125147
0.0125347
0.0125985
0.012617
0.0126757
0.0126972
0.0127542
0.0127722
0.0128243
0.0128456
0.0128933
0.0129129
0.01296
0.012987
0.0130371
0.0130775
0.0131473
0.0132189
0.0133258
0.0134518
0.0136225
0.0138257
0.0140805
0.0143747
0.0147169
0.0150939
0.0155022
0.0159227
0.0163464
0.0167501
0.0171157
0.0174253
0.017666
0.0178225
0.0178957
0.0178946
0.0178326
0.01773
0.017615
0.0175051
0.0174077
0.0173274
0.0172623
0.0172035
0.017149
0.0171052
0.0170763
0.0170638
0.0170688
0.0170858
0.0171017
0.0171058
0.0170941
0.017065
0.0170197
0.0169646
0.0169075
0.0168524
0.0168026
0.0167617
0.0167297
0.0167021
0.0166742
0.0166435
0.0166068
0.0165621
0.0165113
0.0164575
0.0164015
0.0163444
0.0162889
0.0162361
0.0161856
0.0161386
0.016098
0.0160657
0.016043
0.0160322
0.0160343
0.0160478
0.0160704
0.0161003
0.0161348
0.0161709
0.0162058
0.0162378
0.0162646
0.0162845
0.0162967
0.0163014
0.0162988
0.01629
0.0162765
0.0162598
0.0162406
0.0162191
0.0161956
0.0161693
0.0161397
0.0161064
0.0160697
0.0160301
0.0159889
0.0159478
0.0159082
0.0158714
0.015838
0.0158079
0.0157806
0.0157552
0.0157306
0.0157062
0.0156816
0.0156566
0.0156316
0.0156068
0.0155827
0.0155597
0.0155384
0.0155195
0.0155037
0.0154916
0.0154837
0.01548
0.0154803
0.0154843
0.0154912
0.0155005
0.0155117
0.0155244
0.0155386
0.0155541
0.0155712
0.01559
0.0156105
0.0156327
0.0156563
0.0156808
0.0157057
0.01573
0.0157531
0.0157741
0.0157923
0.015807
0.015818
0.015825
0.0158283
0.0158282
0.0158254
0.015821
0.0158159
0.015811
0.015807
0.0158043
0.0158027
0.0158019
0.0158012
0.0157998
0.015797
0.015792
0.0157845
0.0157742
0.0157614
0.0157462
0.0157292
0.015711
0.0156923
0.0156737
0.0156559
0.0156392
0.0156243
0.0156117
0.0156018
0.0155953
0.0155925
0.0155939
0.0155998
0.0156102
0.015625
0.0156437
0.0156657
0.0156902
0.0157165
0.0157438
0.0157714
0.015799
0.0158263
0.0158531
0.0158794
0.0159049
0.0159294
0.0159526
0.0159741
0.0159932
0.0160095
0.0160225
0.016032
0.0160381
0.0160412
0.0160417
0.0160405
0.0160381
0.016035
0.0160314
0.0160271
0.0160215
0.0160137
0.0160028
0.0159879
0.0159679
0.0159425
0.0159117
0.0158762
0.0158371
0.0157966
0.015757
0.0157209
0.0156908
0.0156686
0.0156553
0.0156509
0.0156542
0.0156636
0.0156767
0.0156915
0.0157063
0.0157203
0.0157333
0.0157459
0.0157587
0.0157723
0.0157874
0.0158042
0.0158229
0.0158437
0.0158667
0.0158922
0.0159203
0.0159507
0.0159826
0.0160149
0.016046
0.0160745
0.0160989
0.0161179
0.0161305
0.0161362
0.0161343
0.0161249
0.0161082
0.016085
0.0160565
0.016024
0.0159889
0.0159528
0.0159168
0.0158821
0.0158495
0.0158196
0.0157931
0.0157699
0.01575
0.0157329
0.0157179
0.0157042
0.0156908
0.0156769
0.015662
0.0156456
0.0156277
0.0156084
0.015588
0.0155672
0.0155467
0.0155273
0.0155097
0.0154947
0.0154829
0.0154747
0.0154703
0.0154696
0.0154722
0.0154776
0.015485
0.0154936
0.0155025
0.015511
0.0155186
0.015525
0.01553
0.0155338
0.0155367
0.0155391
0.0155417
0.0155453
0.0155509
0.0155594
0.0155717
0.0155887
0.0156113
0.0156401
0.0156754
0.0157174
0.015766
0.0158208
0.015881
0.0159456
0.0160137
0.0160839
0.0161549
0.0162254
0.0162941
0.0163596
0.0164209
0.0164774
0.0165272
0.0165686
0.0166026
0.0166292
0.0166292
0.04
0.0238612
0.0220219
0.019105
0.0202444
0.022351
0.0213929
0.0197287
0.0198949
0.0204029
0.0198547
0.0192417
0.0191061
0.0189974
0.0186508
0.018428
0.0182852
0.0180769
0.017836
0.0176976
0.0175515
0.0173697
0.0172068
0.0170954
0.0169664
0.0168385
0.0167397
0.0166634
0.0165789
0.0165098
0.0164593
0.0164126
0.0163605
0.0163181
0.0162785
0.0162338
0.0161863
0.0161439
0.0161003
0.0160554
0.0160137
0.0159771
0.0159419
0.01591
0.0158836
0.0158613
0.0158424
0.0158272
0.0158174
0.0158101
0.0158082
0.015808
0.0158148
0.0158223
0.0158378
0.0158518
0.0158769
0.015898
0.0159314
0.0159579
0.0160015
0.0160329
0.0160841
0.0161206
0.016182
0.0162209
0.0162906
0.0163344
0.0164122
0.0164564
0.0165431
0.0165897
0.016681
0.0167279
0.0168275
0.0168736
0.016976
0.0170242
0.0171317
0.0171769
0.0172866
0.0173344
0.0174436
0.0174878
0.0175973
0.0176423
0.0177455
0.0177874
0.0178879
0.0179285
0.0180198
0.0180597
0.0181484
0.0181907
0.0182773
0.0183325
0.0184335
0.0185149
0.018646
0.0187793
0.0189676
0.0191711
0.0194352
0.0197266
0.0200694
0.0204347
0.0208372
0.0212425
0.0216496
0.0220318
0.0223796
0.022663
0.0228777
0.0230103
0.0230597
0.0230312
0.0229486
0.0228297
0.0226986
0.0225766
0.022475
0.02239
0.0223186
0.0222563
0.0221986
0.0221475
0.0221122
0.0220965
0.0220978
0.0221097
0.0221228
0.0221253
0.0221101
0.0220781
0.0220331
0.0219794
0.0219232
0.0218712
0.0218267
0.0217906
0.021763
0.0217416
0.0217208
0.0216961
0.021666
0.0216304
0.0215893
0.0215448
0.0214999
0.0214557
0.0214124
0.0213716
0.0213344
0.021301
0.0212729
0.0212529
0.0212433
0.021245
0.0212582
0.0212825
0.0213158
0.0213553
0.0213985
0.0214433
0.0214868
0.0215268
0.0215615
0.0215898
0.0216108
0.0216245
0.0216318
0.0216337
0.0216314
0.0216263
0.021619
0.0216098
0.0215984
0.0215844
0.0215672
0.0215464
0.021522
0.021495
0.0214663
0.0214375
0.02141
0.0213851
0.0213631
0.0213442
0.0213276
0.0213125
0.0212981
0.0212835
0.0212685
0.021253
0.021237
0.0212211
0.0212056
0.0211911
0.0211782
0.0211675
0.0211598
0.0211555
0.0211551
0.0211586
0.021166
0.0211768
0.0211903
0.0212062
0.0212238
0.0212429
0.0212633
0.021285
0.0213081
0.0213328
0.0213591
0.021387
0.0214161
0.0214459
0.0214759
0.0215052
0.021533
0.0215586
0.0215812
0.0216004
0.0216159
0.0216274
0.0216353
0.0216399
0.021642
0.0216425
0.0216423
0.0216422
0.0216428
0.0216444
0.021647
0.0216504
0.0216539
0.021657
0.021659
0.0216593
0.0216574
0.0216533
0.0216468
0.0216382
0.0216277
0.0216159
0.0216033
0.0215904
0.021578
0.0215664
0.0215563
0.0215482
0.0215426
0.02154
0.0215409
0.0215457
0.0215547
0.0215679
0.0215851
0.0216061
0.0216302
0.0216568
0.0216851
0.0217145
0.0217444
0.0217743
0.0218039
0.021833
0.0218616
0.0218894
0.0219162
0.0219416
0.0219651
0.0219862
0.0220045
0.0220194
0.022031
0.0220393
0.0220449
0.0220482
0.0220501
0.0220511
0.0220519
0.0220524
0.0220526
0.0220517
0.0220491
0.0220436
0.0220343
0.0220202
0.0220009
0.0219762
0.0219469
0.0219142
0.0218799
0.0218464
0.0218162
0.0217916
0.0217743
0.0217653
0.0217644
0.0217706
0.0217821
0.0217969
0.021813
0.0218289
0.021844
0.021858
0.0218715
0.0218851
0.0218995
0.0219151
0.0219322
0.021951
0.0219716
0.0219944
0.0220196
0.0220473
0.0220773
0.0221089
0.0221411
0.0221724
0.0222014
0.0222266
0.0222471
0.0222617
0.0222699
0.0222713
0.0222658
0.0222537
0.0222357
0.0222129
0.0221866
0.0221581
0.0221288
0.0220998
0.0220721
0.0220463
0.0220233
0.0220033
0.0219865
0.0219726
0.0219612
0.0219514
0.0219423
0.0219332
0.0219231
0.0219114
0.0218978
0.0218823
0.0218649
0.0218463
0.0218269
0.0218078
0.0217895
0.0217731
0.0217592
0.0217484
0.0217413
0.021738
0.0217387
0.0217429
0.0217502
0.0217599
0.021771
0.0217829
0.0217946
0.0218055
0.0218153
0.0218238
0.0218309
0.021837
0.0218426
0.0218483
0.0218549
0.0218631
0.0218739
0.0218879
0.0219059
0.0219286
0.0219565
0.02199
0.0220292
0.0220742
0.0221247
0.0221801
0.0222398
0.0223029
0.0223681
0.0224344
0.0225003
0.0225649
0.0226267
0.0226843
0.0227372
0.0227849
0.0228253
0.0228588
0.022885
0.022885
0.04
0.0256561
0.026903
0.0269331
0.0266923
0.0241119
0.0225326
0.0235261
0.024244
0.0231189
0.0222184
0.0224053
0.0224189
0.0219004
0.0215428
0.0214864
0.0212649
0.0209623
0.0207859
0.0206595
0.0204321
0.0202386
0.0201112
0.0199744
0.0198034
0.0196842
0.0195915
0.0194909
0.0193962
0.0193426
0.0192949
0.0192462
0.0192102
0.0191911
0.0191643
0.0191363
0.019114
0.0190934
0.0190654
0.0190406
0.0190201
0.0190004
0.0189809
0.0189679
0.018959
0.0189526
0.0189505
0.0189538
0.0189611
0.0189715
0.0189874
0.0190065
0.0190312
0.019058
0.0190914
0.0191257
0.0191686
0.0192095
0.0192604
0.0193081
0.0193684
0.0194204
0.0194892
0.0195475
0.0196248
0.0196862
0.0197739
0.0198394
0.0199342
0.0200025
0.0201072
0.020175
0.0202865
0.0203565
0.0204748
0.0205418
0.0206687
0.0207365
0.0208667
0.0209325
0.0210714
0.0211347
0.0212735
0.0213366
0.0214793
0.0215362
0.0216755
0.0217332
0.0218689
0.0219193
0.02205
0.0221021
0.0222255
0.0222769
0.0224018
0.0224658
0.0225982
0.0226891
0.0228526
0.0229919
0.0232071
0.0234197
0.0237068
0.0240031
0.0243669
0.0247375
0.0251529
0.0255617
0.0259797
0.0263596
0.0267108
0.0269917
0.0272029
0.0273245
0.0273671
0.0273249
0.0272268
0.0270929
0.0269491
0.0268108
0.0266953
0.0265978
0.0265108
0.0264288
0.0263519
0.02628
0.0262214
0.0261835
0.0261651
0.0261567
0.0261484
0.0261304
0.0260956
0.0260432
0.0259785
0.0259079
0.0258359
0.0257671
0.0257065
0.0256561
0.0256139
0.0255771
0.0255428
0.025506
0.0254634
0.0254164
0.025367
0.0253156
0.0252637
0.0252142
0.0251676
0.0251233
0.0250825
0.0250471
0.0250179
0.0249964
0.0249854
0.0249868
0.0249997
0.0250228
0.025055
0.0250941
0.0251367
0.0251807
0.0252242
0.0252649
0.0253004
0.0253299
0.0253532
0.02537
0.0253809
0.0253874
0.0253904
0.0253908
0.0253891
0.0253857
0.0253802
0.0253719
0.0253604
0.0253457
0.0253277
0.025307
0.0252848
0.0252626
0.0252416
0.0252228
0.0252068
0.0251934
0.0251823
0.0251725
0.0251633
0.0251541
0.0251443
0.025134
0.0251232
0.0251124
0.0251021
0.0250928
0.0250852
0.0250799
0.0250776
0.0250787
0.0250837
0.0250925
0.0251051
0.0251211
0.02514
0.0251613
0.0251845
0.0252092
0.0252354
0.0252629
0.0252918
0.0253223
0.0253543
0.0253878
0.0254224
0.0254575
0.0254927
0.025527
0.0255597
0.02559
0.0256174
0.0256413
0.0256616
0.025678
0.0256909
0.0257007
0.025708
0.0257137
0.0257185
0.025723
0.0257279
0.0257334
0.0257396
0.0257462
0.0257528
0.0257592
0.0257646
0.0257688
0.0257712
0.0257718
0.0257702
0.0257666
0.0257612
0.0257543
0.0257464
0.025738
0.0257297
0.025722
0.0257156
0.0257111
0.025709
0.0257098
0.0257139
0.0257218
0.0257337
0.0257495
0.0257692
0.0257925
0.0258189
0.0258478
0.0258786
0.0259105
0.025943
0.0259757
0.0260082
0.0260404
0.026072
0.0261028
0.0261325
0.0261607
0.0261868
0.0262103
0.0262307
0.0262478
0.0262615
0.0262719
0.0262795
0.0262851
0.0262893
0.0262928
0.0262962
0.0262995
0.0263026
0.0263049
0.0263055
0.0263034
0.0262977
0.0262872
0.0262716
0.0262508
0.0262252
0.0261962
0.0261656
0.0261356
0.0261086
0.0260868
0.0260718
0.0260643
0.0260644
0.0260708
0.0260821
0.0260963
0.0261116
0.0261267
0.0261408
0.0261541
0.026167
0.02618
0.0261937
0.0262085
0.0262247
0.0262424
0.0262618
0.0262832
0.026307
0.0263334
0.0263621
0.0263925
0.0264235
0.0264538
0.026482
0.0265068
0.0265272
0.0265423
0.0265514
0.0265543
0.0265508
0.0265413
0.0265265
0.0265076
0.0264856
0.026462
0.0264378
0.0264141
0.0263918
0.0263715
0.0263538
0.0263391
0.0263272
0.0263179
0.0263105
0.0263041
0.0262979
0.0262907
0.0262819
0.0262708
0.0262571
0.0262407
0.026222
0.0262014
0.0261799
0.0261582
0.0261373
0.0261182
0.0261016
0.0260883
0.0260789
0.0260736
0.0260726
0.0260756
0.0260821
0.0260916
0.026103
0.0261155
0.0261282
0.0261403
0.0261513
0.026161
0.0261693
0.0261766
0.0261833
0.02619
0.0261975
0.0262066
0.0262179
0.0262321
0.0262497
0.0262712
0.026297
0.0263275
0.0263628
0.0264032
0.0264483
0.0264981
0.0265519
0.0266089
0.0266683
0.0267289
0.0267895
0.0268488
0.0269059
0.0269597
0.0270084
0.0270518
0.0270893
0.027121
0.027146
0.027146
0.04
0.0265495
0.0276381
0.0262993
0.0255691
0.0256942
0.0267329
0.0261101
0.024683
0.0245497
0.0252195
0.024923
0.0241417
0.0239618
0.0240414
0.0237659
0.0233993
0.0232711
0.0231388
0.0228912
0.0226865
0.0225699
0.0223997
0.0222111
0.0220758
0.0219673
0.0218276
0.0217116
0.0216342
0.0215662
0.0214948
0.021455
0.0214333
0.0214117
0.0213927
0.0213897
0.0213853
0.0213761
0.0213691
0.0213675
0.0213615
0.0213561
0.0213557
0.0213587
0.0213616
0.0213695
0.0213826
0.0213986
0.0214179
0.0214424
0.0214711
0.0215029
0.0215397
0.0215797
0.0216245
0.0216718
0.0217249
0.0217782
0.0218392
0.0218993
0.0219673
0.0220323
0.0221093
0.0221795
0.0222635
0.0223392
0.0224327
0.022511
0.0226127
0.0226953
0.0228041
0.0228869
0.0230051
0.0230879
0.023212
0.0232951
0.023429
0.0235083
0.02365
0.0237304
0.0238791
0.0239539
0.0241114
0.0241848
0.0243436
0.0244114
0.0245758
0.0246389
0.0247986
0.024858
0.0250177
0.0250725
0.0252259
0.0252837
0.0254391
0.0255058
0.0256694
0.0257649
0.0259583
0.0261012
0.0263444
0.0265629
0.0268771
0.0271779
0.0275663
0.0279458
0.0283821
0.0287961
0.029235
0.0296219
0.0299842
0.0302693
0.0304918
0.0306104
0.0306529
0.0306088
0.0305075
0.0303632
0.0302168
0.0300756
0.0299553
0.0298532
0.0297652
0.0296759
0.0295875
0.029504
0.029433
0.0293789
0.0293449
0.0293228
0.0292993
0.0292634
0.0292111
0.029142
0.0290595
0.0289703
0.0288814
0.0287962
0.0287175
0.0286484
0.0285892
0.0285354
0.0284826
0.0284288
0.0283714
0.0283094
0.0282451
0.0281815
0.028119
0.0280579
0.0280005
0.0279476
0.0278983
0.0278534
0.0278158
0.027787
0.0277679
0.0277603
0.0277649
0.02778
0.027803
0.0278324
0.0278663
0.0279019
0.0279367
0.0279693
0.027998
0.0280211
0.0280384
0.0280506
0.0280582
0.0280617
0.0280624
0.0280612
0.0280581
0.0280531
0.0280462
0.0280369
0.0280247
0.0280093
0.0279911
0.0279706
0.0279488
0.027927
0.0279063
0.0278876
0.0278713
0.0278574
0.0278456
0.0278351
0.0278253
0.0278154
0.0278051
0.0277942
0.0277829
0.0277716
0.0277607
0.0277509
0.027743
0.0277376
0.0277352
0.0277363
0.0277412
0.0277501
0.0277626
0.0277787
0.0277977
0.0278193
0.027843
0.0278684
0.0278953
0.0279236
0.0279533
0.0279846
0.0280173
0.0280515
0.0280867
0.0281224
0.028158
0.0281927
0.0282258
0.0282565
0.0282844
0.0283091
0.0283302
0.0283479
0.0283623
0.0283738
0.0283829
0.0283904
0.0283969
0.0284028
0.0284087
0.0284147
0.028421
0.0284276
0.0284342
0.0284405
0.0284464
0.0284514
0.0284552
0.0284576
0.0284582
0.028457
0.028454
0.0284495
0.0284437
0.0284372
0.0284305
0.0284242
0.0284189
0.0284154
0.0284141
0.0284155
0.0284202
0.0284285
0.0284404
0.0284561
0.0284755
0.0284984
0.0285242
0.0285525
0.0285827
0.0286142
0.0286466
0.0286793
0.0287121
0.0287446
0.0287767
0.0288079
0.0288381
0.0288665
0.0288928
0.0289163
0.0289366
0.0289534
0.0289668
0.0289769
0.0289844
0.0289898
0.0289941
0.0289979
0.0290016
0.0290054
0.0290092
0.0290123
0.0290141
0.0290133
0.0290091
0.0290004
0.0289866
0.0289677
0.0289443
0.0289173
0.0288888
0.0288606
0.0288351
0.0288143
0.0287996
0.0287918
0.0287907
0.0287953
0.0288041
0.0288154
0.0288276
0.0288394
0.0288504
0.0288605
0.0288702
0.0288801
0.0288906
0.0289022
0.028915
0.0289291
0.0289449
0.0289627
0.0289827
0.0290053
0.0290302
0.0290568
0.0290842
0.0291111
0.0291362
0.0291583
0.0291764
0.0291898
0.0291978
0.0292003
0.0291971
0.0291888
0.029176
0.0291597
0.029141
0.0291212
0.0291012
0.029082
0.0290644
0.0290488
0.0290357
0.0290253
0.0290174
0.0290117
0.0290072
0.0290031
0.0289984
0.028992
0.0289832
0.0289713
0.028956
0.0289375
0.028916
0.0288923
0.0288672
0.0288418
0.0288171
0.0287941
0.0287737
0.0287568
0.0287439
0.0287355
0.0287316
0.0287322
0.0287367
0.0287446
0.0287548
0.0287665
0.0287786
0.0287904
0.0288011
0.0288106
0.0288186
0.0288256
0.028832
0.0288383
0.0288455
0.0288539
0.0288644
0.0288773
0.028893
0.0289118
0.0289339
0.0289597
0.0289893
0.029023
0.0290606
0.0291021
0.0291474
0.0291957
0.0292463
0.0292983
0.0293507
0.0294021
0.0294515
0.0294983
0.0295412
0.0295794
0.0296124
0.0296394
0.0296609
0.0296609
0.04
0.0245384
0.0250691
0.0262873
0.0270534
0.0269259
0.0265883
0.0259531
0.0262829
0.0266846
0.02619
0.0255215
0.025646
0.0258255
0.0254623
0.0250724
0.025043
0.0249898
0.0247202
0.0245087
0.0244185
0.0242723
0.0240658
0.0239274
0.0238143
0.0236625
0.0235148
0.0234184
0.0233232
0.023223
0.0231519
0.0231142
0.0230764
0.0230494
0.0230445
0.0230493
0.0230485
0.0230546
0.0230671
0.0230767
0.0230827
0.0230944
0.0231076
0.0231196
0.0231342
0.0231543
0.023176
0.0232003
0.0232295
0.0232627
0.0232986
0.0233386
0.0233828
0.0234297
0.0234809
0.023535
0.0235925
0.0236523
0.0237174
0.0237824
0.0238527
0.023924
0.024002
0.0240768
0.0241622
0.0242438
0.0243357
0.0244207
0.024522
0.0246102
0.0247171
0.0248083
0.0249234
0.0250132
0.0251367
0.0252282
0.0253586
0.0254479
0.0255912
0.0256784
0.0258284
0.0259145
0.0260769
0.0261552
0.0263235
0.0264006
0.0265749
0.026641
0.0268188
0.0268836
0.0270591
0.0271156
0.027294
0.0273535
0.0275298
0.0275984
0.0277905
0.0278854
0.0281029
0.0282504
0.028521
0.0287398
0.0290807
0.029389
0.0298004
0.0301847
0.0306473
0.0310679
0.0315242
0.0319194
0.0322999
0.0325862
0.0328201
0.0329427
0.0329891
0.0329411
0.0328441
0.0326975
0.0325507
0.0324115
0.0322972
0.0321958
0.0321093
0.0320196
0.0319264
0.0318331
0.031753
0.0316894
0.0316444
0.0316105
0.0315757
0.031527
0.0314596
0.0313753
0.0312793
0.0311767
0.0310733
0.0309744
0.0308824
0.0307981
0.0307225
0.0306538
0.0305864
0.0305164
0.030444
0.0303695
0.030293
0.0302172
0.0301446
0.0300749
0.030008
0.0299454
0.0298882
0.0298358
0.0297895
0.0297523
0.0297259
0.0297101
0.0297052
0.0297107
0.0297244
0.0297435
0.0297666
0.0297922
0.0298177
0.0298408
0.0298606
0.0298762
0.0298868
0.0298929
0.0298956
0.0298954
0.0298927
0.0298882
0.0298821
0.0298742
0.029864
0.0298514
0.0298361
0.0298179
0.0297971
0.0297745
0.0297507
0.0297269
0.0297041
0.029683
0.0296639
0.0296468
0.0296316
0.0296176
0.0296041
0.0295906
0.0295768
0.0295624
0.0295475
0.0295325
0.0295181
0.0295049
0.0294937
0.0294851
0.0294796
0.0294778
0.0294798
0.0294856
0.0294953
0.0295084
0.0295248
0.0295438
0.029565
0.0295881
0.0296127
0.0296388
0.0296662
0.0296952
0.0297255
0.0297572
0.0297899
0.029823
0.029856
0.029888
0.0299183
0.0299465
0.0299719
0.0299943
0.0300135
0.0300296
0.0300427
0.0300532
0.0300615
0.0300681
0.0300734
0.0300779
0.0300819
0.0300856
0.0300892
0.0300928
0.0300965
0.0301001
0.0301037
0.0301069
0.0301095
0.0301112
0.0301115
0.0301103
0.0301073
0.0301027
0.0300967
0.0300896
0.030082
0.0300745
0.0300678
0.0300625
0.0300594
0.0300588
0.0300613
0.0300672
0.0300765
0.0300895
0.030106
0.0301257
0.0301485
0.0301737
0.030201
0.0302299
0.0302598
0.0302903
0.0303212
0.030352
0.0303825
0.0304123
0.0304409
0.0304677
0.0304922
0.0305138
0.0305321
0.0305469
0.0305582
0.0305663
0.0305719
0.0305756
0.0305781
0.0305803
0.0305825
0.0305851
0.0305877
0.0305899
0.030591
0.0305897
0.0305852
0.0305764
0.0305627
0.0305441
0.030521
0.0304946
0.0304665
0.0304387
0.0304132
0.0303919
0.030376
0.0303661
0.030362
0.0303628
0.0303672
0.0303736
0.0303806
0.0303872
0.0303931
0.0303984
0.0304034
0.0304086
0.0304146
0.0304215
0.0304296
0.0304389
0.0304498
0.0304626
0.0304777
0.0304953
0.0305152
0.030537
0.0305596
0.0305819
0.0306028
0.0306211
0.030636
0.0306468
0.030653
0.0306544
0.0306509
0.030643
0.0306314
0.0306169
0.0306007
0.0305838
0.0305671
0.0305513
0.0305372
0.0305252
0.0305156
0.0305084
0.0305034
0.0305001
0.0304975
0.0304947
0.0304905
0.030484
0.0304743
0.030461
0.0304437
0.0304226
0.0303981
0.0303711
0.0303424
0.0303132
0.0302846
0.0302578
0.0302336
0.030213
0.0301965
0.0301847
0.0301776
0.0301752
0.0301769
0.0301822
0.0301902
0.0301999
0.0302102
0.0302202
0.0302294
0.0302372
0.0302436
0.030249
0.0302538
0.0302586
0.0302642
0.0302711
0.0302798
0.0302906
0.0303036
0.0303191
0.030337
0.0303574
0.0303806
0.0304068
0.0304362
0.0304689
0.0305047
0.0305435
0.0305847
0.0306274
0.0306707
0.0307139
0.0307555
0.0307947
0.0308306
0.0308628
0.0308905
0.0309134
0.0309318
0.0309318
0.04
0.0245487
0.0252696
0.0257873
0.026006
0.0260777
0.0262576
0.0266992
0.0270263
0.0264385
0.0261671
0.0266204
0.0267731
0.0262519
0.0260262
0.0262254
0.0261831
0.025849
0.02571
0.0257202
0.0255757
0.0253611
0.0252589
0.0251736
0.0250064
0.0248555
0.0247602
0.0246485
0.0245138
0.0244216
0.0243584
0.0242894
0.0242334
0.0242155
0.0242077
0.0241991
0.0242049
0.0242254
0.0242405
0.0242543
0.0242753
0.024298
0.0243153
0.0243359
0.0243613
0.0243868
0.0244128
0.0244446
0.0244795
0.024516
0.0245564
0.0246012
0.0246481
0.0246981
0.0247521
0.024808
0.0248668
0.0249288
0.0249933
0.0250588
0.0251293
0.025201
0.0252758
0.0253522
0.0254353
0.0255162
0.0256047
0.025692
0.0257878
0.0258771
0.0259802
0.0260734
0.0261817
0.0262765
0.0263944
0.0264885
0.0266147
0.0267114
0.0268479
0.0269404
0.0270908
0.0271831
0.0273411
0.0274276
0.0276008
0.0276805
0.0278574
0.0279319
0.0281188
0.0281827
0.0283702
0.0284321
0.0286236
0.0286814
0.0288766
0.0289465
0.0291558
0.0292503
0.0294891
0.0296364
0.0299285
0.0301487
0.030511
0.0308236
0.0312586
0.0316466
0.0321318
0.032562
0.0330378
0.0334385
0.0338398
0.0341322
0.0343751
0.0345015
0.0345572
0.0345037
0.0344072
0.0342612
0.0341151
0.033973
0.0338656
0.0337693
0.0336843
0.0335943
0.0335015
0.0334022
0.033314
0.0332434
0.0331922
0.0331494
0.0331052
0.0330471
0.0329695
0.0328728
0.0327651
0.0326526
0.0325388
0.0324275
0.0323231
0.0322272
0.0321381
0.0320547
0.0319747
0.031893
0.0318076
0.0317212
0.0316359
0.0315515
0.0314693
0.0313917
0.0313184
0.0312483
0.0311832
0.0311247
0.0310729
0.0310286
0.0309948
0.0309725
0.0309601
0.0309564
0.0309607
0.0309712
0.030985
0.0310008
0.0310177
0.0310331
0.0310452
0.0310539
0.0310592
0.031061
0.0310598
0.0310565
0.0310515
0.0310445
0.0310356
0.031025
0.0310119
0.0309961
0.0309778
0.0309569
0.0309338
0.0309089
0.0308832
0.0308576
0.0308326
0.0308089
0.0307869
0.0307666
0.0307477
0.0307299
0.0307127
0.0306954
0.0306778
0.0306596
0.0306409
0.0306221
0.0306039
0.0305869
0.0305721
0.0305599
0.0305511
0.030546
0.0305447
0.0305474
0.0305539
0.030564
0.0305773
0.0305936
0.0306121
0.0306325
0.0306544
0.0306777
0.0307022
0.030728
0.030755
0.0307833
0.0308125
0.0308421
0.0308714
0.0308998
0.0309266
0.0309513
0.0309736
0.0309931
0.0310099
0.0310238
0.0310351
0.031044
0.0310508
0.0310558
0.0310593
0.0310615
0.0310628
0.0310633
0.0310634
0.0310633
0.0310633
0.0310635
0.0310639
0.0310645
0.0310649
0.0310649
0.0310639
0.0310616
0.0310577
0.0310521
0.0310448
0.0310363
0.0310269
0.0310174
0.0310084
0.0310005
0.0309946
0.0309911
0.0309904
0.030993
0.0309989
0.0310083
0.031021
0.0310369
0.0310558
0.0310773
0.0311009
0.0311263
0.031153
0.0311807
0.0312089
0.0312374
0.0312658
0.0312935
0.03132
0.0313447
0.0313669
0.0313862
0.0314021
0.0314143
0.0314231
0.0314287
0.0314318
0.0314331
0.0314332
0.031433
0.031433
0.0314333
0.0314338
0.0314342
0.0314335
0.0314307
0.0314249
0.0314151
0.0314006
0.0313814
0.0313579
0.0313312
0.0313027
0.0312745
0.0312482
0.0312256
0.0312076
0.0311948
0.031187
0.0311833
0.0311825
0.0311833
0.0311844
0.0311853
0.0311855
0.0311853
0.0311851
0.0311853
0.0311863
0.0311884
0.0311916
0.0311961
0.0312022
0.0312102
0.0312206
0.0312335
0.0312487
0.0312658
0.0312838
0.0313018
0.0313187
0.0313334
0.0313452
0.0313534
0.0313577
0.0313577
0.0313537
0.0313459
0.031335
0.0313219
0.0313075
0.0312929
0.0312786
0.0312656
0.0312544
0.0312453
0.0312385
0.0312341
0.0312315
0.0312302
0.0312291
0.0312273
0.0312235
0.0312169
0.0312066
0.0311922
0.0311733
0.0311503
0.0311237
0.0310942
0.0310629
0.031031
0.0309998
0.0309702
0.0309435
0.0309203
0.0309015
0.0308873
0.0308779
0.0308731
0.0308726
0.0308757
0.0308815
0.030889
0.0308972
0.0309051
0.0309122
0.0309179
0.0309223
0.0309256
0.0309284
0.0309313
0.0309351
0.0309402
0.0309472
0.0309561
0.0309669
0.0309796
0.0309941
0.0310103
0.0310283
0.0310483
0.0310707
0.0310956
0.0311232
0.0311534
0.031186
0.0312203
0.0312554
0.0312906
0.0313249
0.0313574
0.0313871
0.0314134
0.0314357
0.031454
0.0314688
0.0314688
0.04
0.0252116
0.0257564
0.0254468
0.0258302
0.0262379
0.026403
0.0264263
0.0263759
0.0264778
0.0268919
0.0268253
0.0264727
0.0265142
0.0268084
0.0266904
0.0264029
0.0263974
0.0264867
0.0263411
0.0261532
0.0261113
0.0260647
0.02591
0.0257743
0.0256996
0.0255913
0.0254504
0.0253466
0.025268
0.0251719
0.0250888
0.0250439
0.0250129
0.0249817
0.0249736
0.0249848
0.0249961
0.0250081
0.025032
0.0250577
0.0250786
0.0251018
0.0251305
0.0251573
0.0251841
0.0252159
0.0252509
0.0252858
0.0253249
0.0253682
0.025413
0.0254604
0.0255119
0.0255652
0.0256203
0.025679
0.0257396
0.0258013
0.0258662
0.0259343
0.0260025
0.0260744
0.0261498
0.0262275
0.0263059
0.0263912
0.0264761
0.0265655
0.0266548
0.0267525
0.026844
0.0269474
0.0270437
0.0271544
0.0272512
0.0273735
0.027472
0.0276028
0.0277027
0.0278488
0.0279433
0.0281005
0.0281952
0.0283648
0.0284477
0.0286298
0.0287098
0.028897
0.0289642
0.0291623
0.029226
0.0294231
0.0294834
0.0296935
0.029762
0.0299816
0.0300785