# vtk DataFile Version 3.0
LBM output step 1910
ASCII
DATASET STRUCTURED_POINTS
DIMENSIONS 400 100 1
ORIGIN 0 0 0
SPACING 1 1 1
POINT_DATA 40000
SCALARS velocity_magnitude double 1
LOOKUP_TABLE default
0
0
0
0
0
0
0
0
0
0
0
0
0
0
0
0
0
0
0
0
0
0
0
0
0
0
0
0
0
0
0
0
0
0
0
0
0
0
0
0
0
0
0
0
0
0
0
0
0
0
0
0
0
0
0
0
0
0
0
0
0
0
0
0
0
0
0
0
0
0
0
0
0
0
0
0
0
0
0
0
0
0
0
0
0
0
0
0
0
0
0
0
0
0
0
0
0
0
0
0
0
0
0
0
0
0
0
0
0
0
0
0
0
0
0
0
0
0
0
0
0
0
0
0
0
0
0
0
0
0
0
0
0
0
0
0
0
0
0
0
0
0
0
0
0
0
0
0
0
0
0
0
0
0
0
0
0
0
0
0
0
0
0
0
0
0
0
0
0
0
0
0
0
0
0
0
0
0
0
0
0
0
0
0
0
0
0
0
0
0
0
0
0
0
0
0
0
0
0
0
0
0
0
0
0
0
0
0
0
0
0
0
0
0
0
0
0
0
0
0
0
0
0
0
0
0
0
0
0
0
0
0
0
0
0
0
0
0
0
0
0
0
0
0
0
0
0
0
0
0
0
0
0
0
0
0
0
0
0
0
0
0
0
0
0
0
0
0
0
0
0
0
0
0
0
0
0
0
0
0
0
0
0
0
0
0
0
0
0
0
0
0
0
0
0
0
0
0
0
0
0
0
0
0
0
0
0
0
0
0
0
0
0
0
0
0
0
0
0
0
0
0
0
0
0
0
0
0
0
0
0
0
0
0
0
0
0
0
0
0
0
0
0
0
0
0
0
0
0
0
0
0
0
0
0
0
0
0
0
0
0
0
0
0
0
0
0
0
0
0
0
0
0
0
0
0
0
0
0
0
0
0
0
0
0
0
0
0
0
0
0
0
0
0
0
0
0
0
0
0
0.04
0.0177727
0.0115543
0.0141093
0.0173288
0.017315
0.0138968
0.0125479
0.012349
0.0123637
0.0119494
0.0118373
0.0114889
0.0112377
0.0110579
0.0110253
0.0108394
0.0106973
0.0105797
0.0105034
0.0103706
0.0102849
0.0101985
0.0101166
0.0100155
0.00994711
0.00987012
0.00979404
0.00971407
0.00965126
0.00957873
0.00950914
0.0094401
0.00937826
0.00930924
0.00924459
0.00918083
0.00911999
0.00905589
0.00899667
0.00893821
0.00888183
0.00882523
0.00877295
0.0087213
0.00867171
0.00862314
0.00857774
0.00853292
0.00849006
0.00844838
0.00840892
0.00837012
0.00833295
0.00829683
0.00826241
0.00822862
0.00819613
0.00816474
0.00813468
0.00810522
0.00807715
0.00805039
0.00802483
0.00800045
0.00797804
0.00795726
0.00793801
0.0079209
0.00790589
0.00789244
0.00788079
0.00787137
0.0078631
0.00785607
0.00785064
0.00784657
0.00784245
0.00783952
0.00783751
0.00783574
0.00783323
0.00783212
0.00783091
0.00782928
0.00782671
0.00782554
0.00782287
0.00781928
0.0078139
0.00780887
0.00780012
0.00778952
0.00777527
0.00775982
0.00773847
0.00771493
0.0076862
0.00765579
0.00761863
0.00758047
0.00753647
0.00749185
0.00744078
0.00739068
0.00733427
0.00727914
0.00721767
0.00715883
0.0070929
0.00703037
0.00696085
0.00689563
0.00682275
0.00675573
0.00668088
0.00661277
0.00653667
0.00646893
0.00639241
0.00632521
0.00624911
0.00618329
0.00610739
0.00604292
0.00596827
0.00590546
0.00583182
0.00577168
0.00570068
0.00564344
0.00557583
0.00552352
0.00546063
0.00541329
0.00535658
0.00531579
0.00526533
0.00523087
0.00518782
0.00515969
0.00512289
0.00510058
0.00507012
0.00505215
0.00502649
0.00501236
0.00499081
0.00497884
0.0049606
0.00495082
0.00493523
0.00492687
0.00491428
0.00490783
0.00489794
0.00489361
0.00488723
0.00488537
0.0048822
0.00488312
0.00488337
0.00488654
0.0048893
0.00489429
0.00489868
0.00490409
0.00490876
0.00491368
0.00491744
0.00492075
0.00492292
0.00492443
0.00492492
0.00492496
0.00492465
0.00492444
0.00492457
0.00492553
0.00492757
0.0049309
0.00493564
0.00494183
0.00494931
0.00495783
0.00496713
0.00497687
0.00498665
0.00499615
0.0050051
0.00501327
0.00502049
0.00502667
0.00503179
0.00503581
0.00503873
0.00504056
0.00504126
0.00504077
0.00503899
0.00503583
0.0050312
0.00502503
0.0050173
0.0050081
0.00499759
0.00498603
0.0049738
0.00496133
0.00494911
0.00493762
0.00492733
0.0049186
0.00491169
0.0049067
0.00490357
0.0049021
0.00490196
0.00490274
0.00490395
0.00490514
0.00490584
0.0049057
0.00490446
0.00490197
0.00489821
0.00489328
0.00488736
0.00488069
0.00487356
0.00486629
0.0048592
0.00485265
0.00484696
0.00484243
0.00483927
0.00483763
0.00483752
0.00483885
0.00484141
0.00484491
0.004849
0.00485329
0.00485739
0.00486093
0.00486359
0.00486511
0.00486531
0.00486411
0.00486151
0.00485756
0.00485241
0.00484621
0.00483915
0.00483141
0.0048232
0.00481471
0.00480619
0.00479786
0.00478997
0.00478271
0.00477614
0.00477017
0.00476448
0.00475859
0.00475193
0.00474393
0.00473422
0.00472266
0.00470943
0.00469491
0.00467955
0.00466377
0.0046478
0.0046317
0.00461545
0.00459907
0.00458286
0.00456747
0.00455398
0.00454371
0.00453806
0.0045382
0.00454479
0.00455782
0.00457657
0.00459969
0.00462541
0.00465187
0.00467736
0.00470062
0.00472091
0.00473811
0.0047526
0.00476516
0.00477679
0.0047886
0.0048017
0.00481713
0.0048358
0.00485847
0.00488571
0.00491777
0.00495459
0.00499568
0.0050402
0.00508696
0.00513458
0.00518164
0.00522679
0.0052689
0.00530715
0.00534104
0.0053704
0.00539537
0.00541632
0.00543381
0.00544845
0.00546084
0.00547149
0.00548074
0.00548879
0.00549568
0.00550143
0.00550604
0.00550961
0.00551231
0.00551437
0.00551602
0.00551739
0.00551852
0.00551929
0.00551948
0.00551886
0.00551722
0.00551448
0.0055107
0.00550606
0.0055008
0.00549523
0.00548963
0.00548432
0.0054796
0.00547583
0.00547337
0.00547258
0.00547376
0.00547709
0.00548264
0.00549037
0.00550011
0.00551168
0.00552482
0.00553932
0.00555495
0.00557148
0.0055887
0.00560642
0.00562445
0.00564263
0.00566083
0.00567891
0.00569676
0.00571425
0.00573127
0.0057477
0.00576347
0.00577849
0.00579274
0.00580618
0.00581878
0.00583048
0.0058412
0.00585083
0.00585924
0.00586629
0.00587183
0.00587574
0.00587794
0.0058784
0.00587718
0.00587443
0.00587044
0.00586556
0.00586028
0.00585511
0.00585057
0.00584712
0.00584518
0.005845
0.00584671
0.00585024
0.00585555
0.00586218
0.00586967
0.00587783
0.00588708
0.00589519
0.00590134
0.00590134
0.04
0.0278884
0.0305095
0.0280463
0.0202177
0.0181345
0.020886
0.0217237
0.0198796
0.0187171
0.0184952
0.0182068
0.0177273
0.0175054
0.0172185
0.016841
0.0165595
0.016427
0.0162123
0.0159781
0.0158086
0.0156774
0.0155031
0.0153508
0.0152308
0.0151093
0.0149723
0.014861
0.0147606
0.0146535
0.0145465
0.0144567
0.0143673
0.014275
0.0141886
0.0141112
0.0140323
0.0139553
0.0138853
0.0138205
0.0137563
0.0136974
0.0136449
0.0135962
0.0135505
0.0135105
0.0134754
0.0134434
0.0134148
0.0133906
0.0133696
0.0133509
0.013335
0.013322
0.0133113
0.0133024
0.0132959
0.013292
0.01329
0.0132899
0.0132929
0.0132984
0.0133061
0.0133169
0.0133313
0.0133483
0.0133687
0.0133932
0.0134212
0.0134518
0.0134868
0.0135255
0.0135661
0.0136096
0.0136573
0.0137062
0.013756
0.0138085
0.0138635
0.013917
0.0139713
0.0140274
0.0140835
0.0141363
0.01419
0.0142437
0.0142951
0.0143418
0.0143889
0.0144324
0.0144711
0.0145031
0.0145334
0.0145554
0.0145708
0.0145774
0.0145798
0.0145704
0.0145552
0.0145292
0.0144985
0.0144553
0.0144085
0.0143494
0.0142877
0.0142137
0.0141383
0.0140496
0.0139622
0.0138611
0.0137612
0.0136484
0.0135403
0.0134165
0.0132995
0.0131694
0.0130473
0.0129093
0.0127848
0.0126449
0.0125177
0.0123752
0.0122507
0.0121079
0.0119839
0.0118435
0.0117244
0.0115859
0.0114719
0.0113397
0.0112331
0.0111069
0.01101
0.0108937
0.010807
0.010701
0.0106268
0.010533
0.0104705
0.010389
0.0103392
0.0102698
0.0102307
0.010173
0.0101441
0.0100962
0.0100753
0.0100367
0.0100224
0.00999098
0.00998187
0.00995757
0.00995267
0.00993416
0.00993324
0.00992084
0.0099233
0.0099164
0.00992264
0.00992126
0.00993051
0.00993396
0.00994613
0.00995337
0.00996701
0.00997677
0.00999093
0.0100014
0.0100145
0.0100244
0.0100356
0.0100438
0.0100524
0.0100589
0.0100655
0.0100707
0.0100764
0.0100818
0.010088
0.0100947
0.0101027
0.0101116
0.0101216
0.0101326
0.0101443
0.0101563
0.0101684
0.0101802
0.0101914
0.0102016
0.0102107
0.0102186
0.0102251
0.0102303
0.0102341
0.0102367
0.0102379
0.0102379
0.0102365
0.0102337
0.0102296
0.0102239
0.0102168
0.0102082
0.0101982
0.0101872
0.0101753
0.010163
0.0101508
0.010139
0.0101282
0.0101189
0.0101113
0.0101056
0.0101021
0.0101004
0.0101005
0.010102
0.0101044
0.0101073
0.0101101
0.0101125
0.010114
0.0101144
0.0101136
0.0101115
0.0101083
0.0101042
0.0100993
0.010094
0.0100886
0.0100835
0.0100789
0.0100752
0.0100726
0.0100715
0.0100719
0.0100737
0.010077
0.0100814
0.0100868
0.0100926
0.0100985
0.0101041
0.0101091
0.0101132
0.0101161
0.0101176
0.0101177
0.0101164
0.0101137
0.01011
0.0101053
0.0101
0.0100941
0.0100881
0.010082
0.0100761
0.0100707
0.0100659
0.010062
0.0100589
0.0100564
0.0100544
0.0100522
0.0100492
0.010045
0.010039
0.0100312
0.0100218
0.010011
0.00999947
0.00998747
0.00997533
0.00996317
0.00995104
0.0099391
0.00992775
0.00991779
0.00991035
0.00990684
0.00990864
0.00991687
0.00993213
0.00995429
0.0099825
0.0100153
0.0100508
0.0100871
0.0101224
0.0101555
0.0101857
0.0102128
0.0102374
0.0102603
0.0102825
0.0103052
0.0103294
0.0103561
0.0103862
0.0104203
0.0104589
0.0105022
0.01055
0.0106016
0.0106563
0.0107127
0.0107694
0.010825
0.010878
0.0109274
0.0109724
0.0110125
0.0110477
0.011078
0.0111041
0.0111264
0.0111458
0.011163
0.0111784
0.0111925
0.0112056
0.0112177
0.0112288
0.011239
0.0112483
0.0112567
0.0112646
0.0112721
0.0112793
0.0112861
0.0112925
0.0112982
0.0113031
0.0113069
0.0113096
0.0113112
0.0113119
0.0113121
0.0113119
0.0113118
0.0113121
0.0113129
0.0113147
0.0113178
0.0113225
0.0113291
0.0113377
0.0113484
0.011361
0.0113755
0.0113916
0.0114091
0.0114278
0.0114475
0.0114679
0.0114888
0.0115101
0.0115315
0.0115529
0.0115742
0.0115951
0.0116155
0.0116354
0.0116545
0.0116728
0.0116902
0.0117066
0.0117219
0.0117363
0.0117495
0.0117617
0.0117728
0.0117826
0.0117911
0.0117981
0.0118035
0.0118073
0.0118094
0.0118097
0.0118084
0.0118057
0.0118019
0.0117974
0.0117927
0.0117882
0.0117847
0.0117824
0.0117818
0.011783
0.0117863
0.0117915
0.0117982
0.0118062
0.0118153
0.0118242
0.011832
0.0118389
0.0118453
0.0118453
0.04
0.0280232
0.0267257
0.0242688
0.025373
0.0273846
0.0264842
0.0245327
0.0243806
0.0247787
0.0241639
0.0233097
0.0229312
0.0226924
0.0222418
0.0218754
0.021608
0.0213121
0.0209883
0.0207705
0.0205669
0.020336
0.0201194
0.0199586
0.0197878
0.0196127
0.0194589
0.0193266
0.0191836
0.0190489
0.0189298
0.0188168
0.0186992
0.0185929
0.0184953
0.0183993
0.0183051
0.0182215
0.018143
0.0180676
0.0179985
0.0179385
0.0178833
0.0178337
0.0177917
0.0177572
0.0177276
0.0177041
0.017687
0.0176752
0.0176676
0.0176645
0.0176657
0.0176704
0.0176779
0.0176885
0.0177024
0.0177191
0.0177381
0.0177607
0.017787
0.017816
0.0178485
0.0178858
0.0179271
0.017972
0.0180222
0.0180775
0.0181365
0.0182003
0.0182698
0.0183429
0.0184197
0.0185014
0.0185869
0.0186741
0.018765
0.0188592
0.0189543
0.01905
0.0191489
0.0192481
0.0193459
0.0194436
0.0195431
0.0196393
0.0197329
0.0198247
0.0199152
0.0199988
0.020078
0.0201518
0.0202205
0.0202783
0.0203295
0.0203709
0.0204046
0.0204243
0.0204363
0.0204358
0.0204269
0.0204023
0.0203717
0.0203266
0.0202741
0.0202059
0.0201345
0.0200459
0.0199533
0.0198455
0.0197365
0.0196088
0.019483
0.019341
0.0192013
0.0190439
0.0188949
0.0187275
0.0185693
0.0183942
0.0182329
0.0180517
0.017888
0.0177054
0.0175427
0.017359
0.0172003
0.01702
0.0168669
0.0166915
0.0165483
0.0163812
0.016249
0.0160929
0.0159751
0.0158315
0.0157288
0.0155999
0.0155135
0.0153992
0.0153288
0.0152298
0.0151746
0.0150894
0.015048
0.0149761
0.0149463
0.0148857
0.0148659
0.0148157
0.0148037
0.0147624
0.0147573
0.0147244
0.0147247
0.0146998
0.0147052
0.014688
0.0146976
0.0146877
0.0147012
0.0146975
0.0147137
0.0147155
0.0147332
0.0147385
0.0147564
0.0147637
0.0147803
0.014788
0.0148023
0.0148094
0.014821
0.0148271
0.0148366
0.0148423
0.0148508
0.0148571
0.0148659
0.0148739
0.0148841
0.0148944
0.0149065
0.0149188
0.0149323
0.0149457
0.0149595
0.0149727
0.0149855
0.0149973
0.0150081
0.0150177
0.0150262
0.0150333
0.0150392
0.0150438
0.0150473
0.0150496
0.0150506
0.0150504
0.0150488
0.0150459
0.0150415
0.0150357
0.0150286
0.0150205
0.0150114
0.0150019
0.0149924
0.0149832
0.0149749
0.0149679
0.0149625
0.0149589
0.0149573
0.0149576
0.0149596
0.0149631
0.0149675
0.0149726
0.0149778
0.0149827
0.014987
0.0149905
0.0149928
0.0149941
0.0149944
0.0149939
0.0149926
0.014991
0.0149893
0.0149877
0.0149867
0.0149865
0.0149873
0.0149895
0.0149932
0.0149983
0.0150047
0.0150123
0.0150208
0.0150298
0.015039
0.015048
0.0150564
0.015064
0.0150705
0.0150758
0.0150797
0.0150823
0.0150836
0.0150839
0.0150834
0.0150823
0.0150809
0.0150793
0.0150778
0.0150765
0.0150756
0.0150753
0.0150757
0.0150768
0.0150784
0.0150804
0.0150821
0.0150832
0.015083
0.0150813
0.0150779
0.015073
0.0150668
0.0150599
0.0150526
0.0150452
0.0150377
0.0150304
0.0150232
0.0150167
0.0150115
0.0150088
0.0150098
0.0150158
0.0150279
0.0150467
0.0150719
0.0151029
0.0151381
0.0151758
0.0152142
0.0152516
0.0152868
0.015319
0.0153483
0.0153751
0.0154001
0.0154244
0.0154491
0.0154752
0.0155037
0.0155354
0.015571
0.015611
0.0156555
0.0157043
0.0157569
0.0158123
0.0158692
0.0159264
0.0159822
0.0160355
0.016085
0.01613
0.0161702
0.0162054
0.0162359
0.0162621
0.0162847
0.0163043
0.0163218
0.0163375
0.016352
0.0163655
0.0163782
0.01639
0.016401
0.0164112
0.0164209
0.0164301
0.0164391
0.0164479
0.0164565
0.0164648
0.0164726
0.0164795
0.0164854
0.0164901
0.0164938
0.0164966
0.0164987
0.0165003
0.0165018
0.0165035
0.0165056
0.0165084
0.0165124
0.0165178
0.0165249
0.016534
0.016545
0.0165581
0.0165729
0.0165895
0.0166074
0.0166266
0.0166468
0.0166676
0.016689
0.0167106
0.0167322
0.0167538
0.0167751
0.016796
0.0168165
0.0168363
0.0168555
0.0168739
0.0168916
0.0169083
0.0169242
0.0169393
0.0169533
0.0169663
0.0169782
0.0169889
0.0169981
0.0170058
0.0170119
0.0170161
0.0170186
0.0170193
0.0170184
0.0170161
0.0170127
0.0170086
0.0170042
0.0170001
0.0169966
0.0169943
0.0169935
0.0169943
0.0169969
0.0170013
0.0170073
0.0170142
0.0170223
0.0170309
0.0170392
0.0170468
0.017054
0.017054
0.04
0.0297056
0.0310331
0.0314386
0.0315818
0.0292201
0.0275683
0.0284849
0.0293466
0.0282221
0.0271134
0.0271297
0.0271299
0.0265365
0.0260118
0.0258218
0.0255343
0.025143
0.0248607
0.0246574
0.0243731
0.0241122
0.0239229
0.0237383
0.0235166
0.0233361
0.023184
0.0230224
0.0228551
0.0227197
0.0225896
0.0224542
0.0223264
0.0222174
0.0221066
0.0219977
0.0218995
0.0218115
0.021723
0.0216421
0.0215712
0.0215072
0.0214471
0.0213969
0.0213555
0.0213209
0.0212928
0.0212742
0.0212626
0.0212574
0.0212584
0.0212661
0.0212788
0.021296
0.021317
0.0213425
0.0213715
0.0214033
0.0214382
0.0214775
0.02152
0.0215656
0.0216161
0.0216715
0.0217307
0.0217949
0.0218653
0.0219404
0.0220205
0.0221068
0.0221985
0.0222944
0.022396
0.0225025
0.0226124
0.0227263
0.0228451
0.0229657
0.0230884
0.0232146
0.0233431
0.0234705
0.0235996
0.0237306
0.0238606
0.0239872
0.0241148
0.024241
0.0243625
0.0244783
0.0245927
0.0247005
0.0247999
0.0248908
0.0249764
0.02505
0.0251134
0.0251654
0.0252088
0.025237
0.0252557
0.0252602
0.0252549
0.0252339
0.0252046
0.0251585
0.0251047
0.0250347
0.0249573
0.0248622
0.0247633
0.024646
0.0245246
0.0243867
0.0242486
0.0240908
0.0239363
0.0237651
0.0235981
0.0234126
0.023238
0.0230443
0.0228624
0.0226622
0.0224795
0.0222756
0.0220927
0.0218897
0.0217119
0.0215117
0.0213417
0.0211489
0.0209906
0.0208073
0.0206632
0.020493
0.0203654
0.020209
0.0200992
0.0199586
0.0198668
0.0197412
0.0196675
0.0195573
0.0194997
0.019403
0.0193607
0.0192766
0.0192465
0.0191737
0.0191548
0.019092
0.019082
0.019029
0.0190271
0.018983
0.0189878
0.0189532
0.0189639
0.0189375
0.0189531
0.018935
0.0189537
0.0189423
0.0189629
0.0189569
0.0189774
0.0189749
0.0189942
0.0189938
0.0190105
0.0190111
0.0190253
0.0190265
0.0190382
0.0190405
0.0190512
0.0190553
0.0190662
0.0190729
0.019085
0.0190946
0.0191083
0.0191204
0.0191352
0.0191488
0.0191638
0.0191775
0.0191915
0.0192041
0.0192164
0.0192271
0.0192371
0.0192456
0.0192532
0.0192595
0.0192648
0.0192689
0.0192718
0.0192735
0.019274
0.019273
0.0192707
0.019267
0.019262
0.0192559
0.0192489
0.0192413
0.0192336
0.0192261
0.0192194
0.0192137
0.0192096
0.0192071
0.0192065
0.0192077
0.0192106
0.019215
0.0192205
0.0192267
0.0192332
0.0192396
0.0192457
0.019251
0.0192555
0.019259
0.0192616
0.0192635
0.0192648
0.0192656
0.0192663
0.0192672
0.0192685
0.0192706
0.0192736
0.0192779
0.0192836
0.0192906
0.0192989
0.0193083
0.0193185
0.0193293
0.0193402
0.0193509
0.0193612
0.0193706
0.0193789
0.0193859
0.0193916
0.0193959
0.0193989
0.019401
0.0194022
0.0194029
0.0194033
0.0194036
0.019404
0.0194047
0.0194056
0.019407
0.0194088
0.0194111
0.0194137
0.0194164
0.0194187
0.0194203
0.0194206
0.0194195
0.0194166
0.0194122
0.0194066
0.0194001
0.0193932
0.0193861
0.019379
0.019372
0.0193653
0.0193594
0.019355
0.0193532
0.0193552
0.0193622
0.0193752
0.0193947
0.0194205
0.0194518
0.0194872
0.0195251
0.0195636
0.0196011
0.0196365
0.0196691
0.019699
0.0197264
0.0197523
0.0197776
0.0198034
0.0198307
0.0198605
0.0198935
0.0199305
0.0199718
0.0200176
0.0200678
0.0201216
0.0201781
0.020236
0.0202939
0.0203503
0.0204038
0.0204535
0.0204985
0.0205385
0.0205735
0.0206036
0.0206295
0.0206516
0.0206708
0.0206877
0.0207029
0.0207169
0.02073
0.0207422
0.0207538
0.0207646
0.0207749
0.0207848
0.0207945
0.020804
0.0208134
0.0208228
0.0208318
0.0208404
0.0208482
0.0208549
0.0208606
0.0208651
0.0208686
0.0208714
0.0208735
0.0208754
0.0208772
0.0208793
0.020882
0.0208856
0.0208906
0.0208972
0.0209057
0.0209161
0.0209286
0.020943
0.0209592
0.0209769
0.0209959
0.021016
0.0210369
0.0210583
0.0210799
0.0211016
0.0211231
0.0211444
0.0211653
0.0211857
0.0212056
0.0212249
0.0212436
0.0212616
0.0212789
0.0212956
0.0213114
0.0213264
0.0213404
0.0213533
0.0213648
0.0213749
0.0213832
0.0213897
0.0213944
0.0213971
0.021398
0.0213973
0.0213952
0.021392
0.0213882
0.0213842
0.0213804
0.0213773
0.0213752
0.0213746
0.0213756
0.0213782
0.0213825
0.0213885
0.0213958
0.0214038
0.0214121
0.0214208
0.0214295
0.0214376
0.0214376
0.04
0.0309467
0.0320142
0.0306357
0.0300037
0.0303688
0.0316357
0.0311442
0.0296943
0.0295057
0.03026
0.0300416
0.0291895
0.028881
0.0289349
0.028651
0.0282028
0.0279709
0.0277861
0.0274931
0.0272215
0.0270449
0.0268365
0.0266046
0.0264193
0.0262671
0.0260845
0.0259111
0.0257686
0.0256319
0.0254816
0.0253496
0.025232
0.0251129
0.0249933
0.0248903
0.0247925
0.0246953
0.0246047
0.0245265
0.0244513
0.0243812
0.0243206
0.0242695
0.0242232
0.0241857
0.024158
0.0241388
0.0241266
0.0241237
0.024129
0.0241415
0.0241603
0.0241856
0.0242162
0.0242517
0.0242909
0.0243341
0.0243813
0.0244321
0.0244857
0.024544
0.0246069
0.0246736
0.024745
0.0248226
0.0249052
0.0249927
0.0250867
0.0251867
0.0252916
0.0254022
0.0255189
0.0256397
0.0257654
0.0258962
0.0260305
0.0261675
0.0263094
0.0264538
0.0265989
0.0267464
0.0268975
0.0270475
0.0271967
0.0273475
0.0274988
0.0276454
0.0277897
0.0279327
0.0280717
0.0282024
0.0283283
0.0284478
0.0285592
0.0286592
0.0287511
0.0288324
0.0289035
0.0289603
0.0290076
0.0290421
0.0290649
0.0290721
0.0290706
0.0290537
0.0290251
0.028981
0.0289294
0.0288592
0.0287801
0.0286863
0.0285851
0.0284648
0.0283415
0.028202
0.0280582
0.0278977
0.0277396
0.0275633
0.0273899
0.0272007
0.0270188
0.0268182
0.026629
0.0264225
0.0262305
0.0260197
0.0258288
0.025619
0.025433
0.0252269
0.0250504
0.0248524
0.0246881
0.0245003
0.0243518
0.0241771
0.0240454
0.0238846
0.0237719
0.0236257
0.0235311
0.0233993
0.0233231
0.0232046
0.0231448
0.0230388
0.0229944
0.0228991
0.0228679
0.0227831
0.0227637
0.0226882
0.0226795
0.0226139
0.0226143
0.022558
0.0225666
0.0225199
0.0225347
0.0224968
0.0225165
0.0224865
0.0225084
0.0224851
0.0225079
0.0224896
0.022511
0.0224968
0.0225159
0.0225045
0.0225207
0.0225122
0.0225261
0.0225203
0.0225329
0.0225307
0.0225431
0.0225449
0.0225581
0.0225639
0.0225782
0.0225871
0.0226022
0.0226132
0.0226281
0.0226397
0.0226536
0.0226647
0.0226768
0.0226866
0.0226965
0.0227045
0.0227123
0.0227184
0.022724
0.0227282
0.0227316
0.0227337
0.0227347
0.0227343
0.0227327
0.0227297
0.0227255
0.0227201
0.0227138
0.0227069
0.0226997
0.0226927
0.0226862
0.0226807
0.0226764
0.0226737
0.0226727
0.0226734
0.0226758
0.0226797
0.0226847
0.0226907
0.0226971
0.0227036
0.02271
0.0227158
0.022721
0.0227255
0.0227292
0.0227322
0.0227347
0.0227368
0.0227387
0.0227407
0.022743
0.022746
0.0227499
0.0227549
0.0227611
0.0227686
0.0227773
0.0227871
0.0227975
0.0228085
0.0228196
0.0228305
0.0228409
0.0228505
0.022859
0.0228663
0.0228722
0.0228767
0.02288
0.0228822
0.0228837
0.0228848
0.0228856
0.0228865
0.0228876
0.0228888
0.0228903
0.0228921
0.0228942
0.0228965
0.0228989
0.0229012
0.022903
0.022904
0.0229038
0.0229021
0.0228989
0.0228941
0.0228882
0.0228814
0.0228741
0.0228667
0.0228591
0.0228518
0.022845
0.0228391
0.0228349
0.0228335
0.0228361
0.0228437
0.0228573
0.0228772
0.0229033
0.0229347
0.0229701
0.0230077
0.023046
0.0230833
0.0231186
0.0231513
0.0231814
0.0232094
0.023236
0.0232622
0.0232891
0.0233177
0.0233488
0.0233832
0.0234215
0.0234641
0.0235111
0.0235623
0.0236171
0.0236743
0.0237328
0.0237911
0.0238475
0.023901
0.0239503
0.0239949
0.0240344
0.0240688
0.0240983
0.0241234
0.0241449
0.0241635
0.0241797
0.0241943
0.0242077
0.0242203
0.0242321
0.0242434
0.0242541
0.0242645
0.0242747
0.0242847
0.0242948
0.024305
0.0243152
0.0243251
0.0243346
0.0243434
0.0243512
0.0243579
0.0243635
0.0243681
0.0243717
0.0243745
0.0243769
0.024379
0.0243811
0.0243836
0.0243869
0.0243913
0.0243972
0.0244048
0.0244143
0.0244258
0.0244392
0.0244545
0.0244714
0.0244896
0.024509
0.0245292
0.0245499
0.0245708
0.0245917
0.0246124
0.0246328
0.0246529
0.0246725
0.0246916
0.0247102
0.0247284
0.0247461
0.0247634
0.0247801
0.0247963
0.0248117
0.0248262
0.0248395
0.0248515
0.0248619
0.0248705
0.0248772
0.0248818
0.0248845
0.0248853
0.0248845
0.0248823
0.0248792
0.0248754
0.0248714
0.0248676
0.0248645
0.0248624
0.0248616
0.0248623
0.0248647
0.0248686
0.0248741
0.0248811
0.0248892
0.024898
0.024907
0.0249157
0.0249236
0.0249236
0.04
0.0289309
0.0293868
0.0306442
0.0314247
0.0313344
0.0311168
0.0306294
0.0310653
0.0315675
0.0311361
0.0304628
0.0306014
0.0308461
0.0305102
0.0300614
0.029986
0.0299358
0.0296522
0.029382
0.0292482
0.0290872
0.0288593
0.0286867
0.0285522
0.0283854
0.0282117
0.0280813
0.0279527
0.0278074
0.027674
0.0275637
0.0274464
0.0273273
0.0272222
0.0271269
0.0270269
0.0269334
0.0268508
0.0267725
0.0266949
0.0266269
0.0265669
0.0265113
0.0264616
0.0264225
0.026391
0.0263669
0.026352
0.0263474
0.0263508
0.026363
0.0263834
0.0264115
0.0264462
0.0264868
0.0265322
0.0265827
0.0266374
0.0266951
0.0267568
0.0268234
0.0268935
0.0269673
0.027047
0.0271319
0.027221
0.0273162
0.027418
0.0275247
0.027637
0.0277558
0.0278797
0.0280084
0.028143
0.0282818
0.0284244
0.0285718
0.0287232
0.0288761
0.0290325
0.0291928
0.029354
0.0295148
0.029679
0.0298445
0.0300074
0.0301684
0.030331
0.0304904
0.0306437
0.0307926
0.0309395
0.0310779
0.0312071
0.0313294
0.031445
0.0315479
0.0316408
0.0317241
0.0317967
0.0318551
0.0319041
0.0319399
0.0319635
0.0319735
0.0319733
0.0319569
0.03193
0.0318888
0.0318362
0.0317674
0.031691
0.0315978
0.0314956
0.0313793
0.031257
0.0311174
0.030975
0.0308183
0.0306585
0.0304835
0.0303112
0.030123
0.0299386
0.0297397
0.0295493
0.0293429
0.0291488
0.0289395
0.0287472
0.0285385
0.0283513
0.0281474
0.0279701
0.0277738
0.0276088
0.027423
0.0272736
0.0270993
0.0269666
0.0268057
0.0266911
0.0265426
0.026446
0.0263103
0.026231
0.0261062
0.0260436
0.0259294
0.0258816
0.0257765
0.0257434
0.0256473
0.0256268
0.0255399
0.0255319
0.0254539
0.0254562
0.0253877
0.0253989
0.025339
0.0253567
0.0253054
0.0253271
0.0252828
0.0253062
0.0252684
0.0252912
0.0252587
0.0252797
0.0252523
0.0252706
0.0252478
0.0252639
0.0252462
0.0252607
0.0252485
0.0252625
0.0252559
0.02527
0.0252688
0.0252834
0.0252864
0.025301
0.0253071
0.0253212
0.0253287
0.0253416
0.0253494
0.0253605
0.0253677
0.0253767
0.0253828
0.0253898
0.0253945
0.0253995
0.0254027
0.0254057
0.0254071
0.0254078
0.025407
0.0254052
0.025402
0.0253978
0.0253922
0.0253859
0.0253788
0.0253713
0.0253639
0.0253568
0.0253505
0.0253452
0.0253413
0.025339
0.0253383
0.0253393
0.0253418
0.0253455
0.0253503
0.0253558
0.0253616
0.0253675
0.0253731
0.0253784
0.0253831
0.0253872
0.0253907
0.0253937
0.0253964
0.0253989
0.0254014
0.0254042
0.0254076
0.0254118
0.0254169
0.0254232
0.0254307
0.0254393
0.0254488
0.025459
0.0254697
0.0254805
0.0254912
0.0255013
0.0255107
0.025519
0.0255261
0.0255319
0.0255362
0.0255394
0.0255415
0.025543
0.0255441
0.0255451
0.0255463
0.0255477
0.0255493
0.0255512
0.0255531
0.0255552
0.0255572
0.0255592
0.0255608
0.0255619
0.0255621
0.0255611
0.0255588
0.025555
0.0255497
0.0255433
0.0255361
0.0255282
0.0255202
0.0255121
0.0255043
0.0254971
0.025491
0.0254869
0.0254857
0.0254885
0.0254965
0.0255103
0.0255303
0.0255563
0.0255873
0.0256222
0.0256594
0.0256971
0.0257339
0.0257689
0.0258015
0.0258317
0.0258601
0.0258872
0.0259142
0.0259419
0.0259714
0.0260034
0.0260387
0.0260778
0.0261212
0.026169
0.0262207
0.0262759
0.0263334
0.0263919
0.0264499
0.026506
0.0265589
0.0266076
0.0266514
0.0266901
0.0267237
0.0267525
0.0267769
0.0267977
0.0268155
0.026831
0.0268448
0.0268574
0.0268691
0.0268802
0.0268908
0.026901
0.026911
0.026921
0.0269311
0.0269413
0.0269518
0.0269623
0.0269727
0.0269828
0.0269922
0.0270007
0.0270082
0.0270145
0.0270197
0.0270239
0.0270272
0.0270297
0.0270318
0.0270336
0.0270355
0.027038
0.0270414
0.027046
0.0270522
0.0270602
0.0270701
0.027082
0.0270958
0.0271112
0.0271281
0.0271462
0.027165
0.0271843
0.0272038
0.0272233
0.0272426
0.0272615
0.02728
0.0272981
0.0273158
0.0273333
0.0273505
0.0273676
0.0273844
0.027401
0.0274172
0.0274328
0.0274476
0.0274612
0.0274734
0.0274839
0.0274925
0.0274991
0.0275036
0.027506
0.0275065
0.0275054
0.027503
0.0274995
0.0274955
0.0274914
0.0274874
0.0274839
0.0274814
0.02748
0.0274799
0.0274815
0.0274848
0.0274895
0.0274956
0.027503
0.0275113
0.0275201
0.0275289
0.0275372
0.0275372
0.04
0.0287964
0.0294692
0.0300565
0.0302781
0.0303968
0.0306339
0.0311553
0.031579
0.0310679
0.0308401
0.0313721
0.0316233
0.031135
0.0308968
0.0311292
0.0311476
0.0308124
0.030636
0.030646
0.0305241
0.0303006
0.03018
0.0301023
0.0299513
0.0298005
0.0297052
0.0296013
0.029465
0.0293534
0.0292638
0.0291582
0.0290461
0.0289563
0.0288707
0.028776
0.0286871
0.0286122
0.0285356
0.0284579
0.0283895
0.0283286
0.0282668
0.0282102
0.0281629
0.0281213
0.0280838
0.0280559
0.0280376
0.028027
0.0280251
0.0280339
0.0280516
0.0280776
0.0281116
0.0281528
0.0282003
0.0282535
0.0283108
0.0283726
0.0284393
0.0285094
0.0285828
0.0286618
0.0287456
0.0288329
0.0289258
0.0290254
0.0291296
0.0292388
0.029355
0.0294767
0.0296032
0.0297355
0.0298732
0.0300149
0.0301618
0.0303132
0.0304674
0.0306254
0.0307884
0.0309527
0.0311182
0.031288
0.0314604
0.0316304
0.0318012
0.0319747
0.0321464
0.0323127
0.0324783
0.0326421
0.0327996
0.0329492
0.0330949
0.0332337
0.0333633
0.0334831
0.033595
0.0336971
0.0337887
0.0338679
0.0339377
0.0339963
0.0340423
0.034075
0.0340985
0.0341079
0.0341037
0.0340873
0.034061
0.0340175
0.0339632
0.0338974
0.0338198
0.0337261
0.0336263
0.0335126
0.0333893
0.0332532
0.0331133
0.0329582
0.0327994
0.0326287
0.032457
0.0322714
0.0320886
0.0318935
0.031704
0.0315018
0.0313096
0.0311054
0.030915
0.0307116
0.0305269
0.0303288
0.0301533
0.0299621
0.029799
0.0296178
0.0294688
0.0292978
0.0291654
0.0290059
0.0288897
0.0287409
0.0286424
0.0285036
0.0284211
0.0282916
0.0282259
0.0281044
0.028054
0.027941
0.0279061
0.0278005
0.0277801
0.0276833
0.0276761
0.0275872
0.0275916
0.0275112
0.0275242
0.0274514
0.0274708
0.0274054
0.0274278
0.0273691
0.0273926
0.0273404
0.0273627
0.027317
0.0273375
0.0272983
0.0273167
0.0272847
0.0273015
0.0272769
0.0272928
0.0272757
0.0272912
0.0272808
0.0272959
0.0272912
0.0273056
0.027305
0.0273183
0.0273203
0.0273319
0.0273352
0.027345
0.0273486
0.0273563
0.0273596
0.0273653
0.0273678
0.0273717
0.0273731
0.0273751
0.0273751
0.027375
0.0273732
0.0273707
0.0273667
0.0273618
0.0273556
0.0273487
0.0273409
0.0273327
0.0273243
0.0273162
0.0273087
0.0273021
0.0272966
0.0272926
0.0272901
0.0272893
0.0272899
0.027292
0.0272952
0.0272993
0.027304
0.027309
0.0273141
0.0273189
0.0273235
0.0273276
0.0273312
0.0273344
0.0273373
0.02734
0.0273428
0.0273457
0.0273492
0.0273534
0.0273585
0.0273646
0.0273718
0.0273801
0.0273891
0.0273989
0.0274091
0.0274194
0.0274295
0.0274391
0.027448
0.0274559
0.0274626
0.0274678
0.0274718
0.0274745
0.0274762
0.0274774
0.0274783
0.0274792
0.0274804
0.0274818
0.0274835
0.0274854
0.0274873
0.0274891
0.0274907
0.0274919
0.0274927
0.0274928
0.027492
0.0274901
0.0274868
0.0274822
0.0274762
0.027469
0.027461
0.0274523
0.0274433
0.0274342
0.0274255
0.0274174
0.0274107
0.0274062
0.0274047
0.0274075
0.0274154
0.0274292
0.0274491
0.0274747
0.0275053
0.0275396
0.0275759
0.0276129
0.027649
0.0276834
0.0277156
0.0277456
0.0277739
0.0278013
0.0278287
0.027857
0.0278871
0.0279197
0.0279557
0.0279954
0.0280392
0.0280873
0.0281392
0.0281943
0.0282516
0.0283097
0.0283672
0.0284225
0.0284745
0.0285222
0.028565
0.0286027
0.0286354
0.0286633
0.0286869
0.0287068
0.0287238
0.0287385
0.0287514
0.028763
0.0287737
0.0287838
0.0287935
0.0288029
0.0288122
0.0288216
0.0288313
0.0288412
0.0288514
0.0288618
0.0288722
0.0288823
0.0288919
0.0289007
0.0289085
0.0289152
0.0289208
0.0289253
0.0289287
0.0289312
0.028933
0.0289343
0.0289355
0.0289369
0.0289391
0.0289422
0.0289468
0.028953
0.0289611
0.028971
0.0289829
0.0289965
0.0290115
0.0290277
0.0290447
0.0290621
0.0290797
0.0290971
0.0291143
0.0291312
0.0291477
0.0291639
0.0291798
0.0291957
0.0292116
0.0292277
0.0292438
0.02926
0.0292759
0.0292915
0.0293063
0.0293199
0.0293321
0.0293425
0.029351
0.0293573
0.0293614
0.0293634
0.0293636
0.029362
0.0293592
0.0293555
0.0293511
0.0293465
0.0293421
0.0293381
0.0293348
0.0293327
0.0293319
0.0293325
0.0293348
0.0293387
0.0293441
0.0293507
0.0293584
0.0293666
0.0293753
0.0293836
0.0293836
0.04
0.0295128
0.0300618
0.0297215
0.0300874
0.0305514
0.0307204
0.0307595
0.030756
0.0309335
0.0314212
0.0314094
0.0310871
0.0311741
0.0315443
0.0314828
0.0312032
0.0312071
0.0313433
0.031235
0.0310474
0.0310109
0.0310014
0.0308822
0.0307656
0.0307171
0.0306503
0.0305434
0.0304613
0.0304024
0.0303197
0.03023
0.0301615
0.0300959
0.0300161
0.0299426
0.029881
0.0298161
0.0297469
0.0296868
0.0296312
0.029573
0.029517
0.0294687
0.0294227
0.0293785
0.0293412
0.0293117
0.0292873
0.0292709
0.0292645
0.0292671
0.0292785
0.0292997
0.0293297
0.0293676
0.0294133
0.029465
0.0295219
0.0295848
0.0296521
0.0297225
0.0297981
0.0298787
0.0299625
0.0300509
0.0301459
0.0302454
0.0303493
0.0304599
0.0305766
0.0306976
0.0308245
0.0309573
0.0310948
0.0312371
0.0313847
0.0315358
0.0316915
0.031852
0.0320153
0.0321805
0.032351
0.0325244
0.0326975
0.0328719
0.0330506
0.0332283
0.0334027
0.0335771
0.0337525
0.0339221
0.0340856
0.0342464
0.0344039
0.0345513