# vtk DataFile Version 3.0
LBM output step 1590
ASCII
DATASET STRUCTURED_POINTS
DIMENSIONS 400 100 1
ORIGIN 0 0 0
SPACING 1 1 1
POINT_DATA 40000
SCALARS velocity_magnitude double 1
LOOKUP_TABLE default
0
0
0
0
0
0
0
0
0
0
0
0
0
0
0
0
0
0
0
0
0
0
0
0
0
0
0
0
0
0
0
0
0
0
0
0
0
0
0
0
0
0
0
0
0
0
0
0
0
0
0
0
0
0
0
0
0
0
0
0
0
0
0
0
0
0
0
0
0
0
0
0
0
0
0
0
0
0
0
0
0
0
0
0
0
0
0
0
0
0
0
0
0
0
0
0
0
0
0
0
0
0
0
0
0
0
0
0
0
0
0
0
0
0
0
0
0
0
0
0
0
0
0
0
0
0
0
0
0
0
0
0
0
0
0
0
0
0
0
0
0
0
0
0
0
0
0
0
0
0
0
0
0
0
0
0
0
0
0
0
0
0
0
0
0
0
0
0
0
0
0
0
0
0
0
0
0
0
0
0
0
0
0
0
0
0
0
0
0
0
0
0
0
0
0
0
0
0
0
0
0
0
0
0
0
0
0
0
0
0
0
0
0
0
0
0
0
0
0
0
0
0
0
0
0
0
0
0
0
0
0
0
0
0
0
0
0
0
0
0
0
0
0
0
0
0
0
0
0
0
0
0
0
0
0
0
0
0
0
0
0
0
0
0
0
0
0
0
0
0
0
0
0
0
0
0
0
0
0
0
0
0
0
0
0
0
0
0
0
0
0
0
0
0
0
0
0
0
0
0
0
0
0
0
0
0
0
0
0
0
0
0
0
0
0
0
0
0
0
0
0
0
0
0
0
0
0
0
0
0
0
0
0
0
0
0
0
0
0
0
0
0
0
0
0
0
0
0
0
0
0
0
0
0
0
0
0
0
0
0
0
0
0
0
0
0
0
0
0
0
0
0
0
0
0
0
0
0
0
0
0
0
0
0
0
0
0
0
0
0
0
0
0
0
0
0
0
0
0
0
0.04
0.0176493
0.0115785
0.0144455
0.0176011
0.0175906
0.0142545
0.0130374
0.0129072
0.012972
0.0125958
0.0125188
0.0121961
0.0119655
0.0117951
0.0117651
0.0115756
0.0114263
0.0112977
0.0112095
0.0110629
0.0109626
0.0108618
0.0107664
0.0106517
0.0105701
0.0104805
0.0103924
0.0103011
0.0102281
0.0101472
0.0100714
0.00999876
0.00993656
0.00987052
0.00981191
0.00975691
0.00970684
0.00965449
0.00960689
0.009559
0.00951114
0.00946024
0.00941048
0.00935805
0.00930437
0.00924865
0.00919347
0.00913653
0.00907924
0.00902123
0.00896392
0.00890589
0.00884862
0.00879259
0.00873896
0.00868715
0.00863852
0.00859357
0.00855223
0.00851422
0.00848053
0.00845143
0.00842587
0.00840429
0.00838614
0.00837075
0.00835592
0.00834323
0.00833076
0.00831983
0.00830905
0.00830189
0.00829409
0.00828858
0.00828138
0.00827586
0.0082652
0.00825637
0.0082436
0.00823327
0.00821708
0.00820515
0.00818629
0.00816878
0.00814138
0.00811843
0.0080866
0.00806195
0.00803317
0.00801982
0.00800405
0.00800388
0.00799897
0.00800664
0.008
0.00799863
0.00797714
0.00795867
0.0079172
0.00788172
0.00782732
0.00778441
0.00772643
0.00768584
0.00763341
0.00760083
0.00755769
0.00753579
0.00750237
0.00748898
0.00746296
0.00745434
0.00743032
0.00742075
0.00739387
0.0073778
0.00734372
0.0073188
0.00727643
0.00724224
0.00719387
0.00715382
0.00710231
0.00705994
0.00700999
0.00696818
0.00692114
0.00688255
0.00684052
0.00680497
0.0067683
0.00673784
0.00670633
0.00667967
0.00665371
0.00663111
0.00660834
0.00658854
0.00656936
0.00655146
0.00653403
0.00651855
0.00650371
0.00648976
0.0064772
0.00646634
0.00645638
0.00644763
0.00644055
0.00643453
0.00642882
0.00642355
0.00641855
0.00641279
0.00640588
0.00639807
0.00638918
0.00637877
0.00636723
0.00635521
0.00634288
0.00633049
0.00631879
0.00630826
0.00629893
0.00629084
0.00628415
0.00627866
0.00627398
0.00626995
0.00626651
0.00626351
0.00626095
0.00625907
0.00625816
0.00625842
0.00626009
0.00626347
0.00626858
0.0062753
0.00628344
0.00629271
0.00630266
0.00631286
0.00632303
0.00633294
0.00634251
0.00635183
0.00636118
0.0063709
0.00638132
0.0063928
0.00640561
0.00641984
0.0064355
0.00645245
0.00647043
0.0064891
0.00650807
0.0065269
0.0065451
0.00656218
0.00657768
0.00659112
0.0066021
0.00661031
0.00661553
0.00661768
0.00661681
0.00661308
0.00660676
0.00659819
0.00658773
0.00657579
0.00656276
0.00654898
0.0065348
0.00652046
0.00650619
0.00649212
0.00647834
0.00646487
0.00645171
0.00643888
0.0064264
0.00641437
0.00640295
0.00639237
0.00638293
0.00637492
0.00636866
0.00636436
0.00636219
0.00636215
0.00636413
0.00636789
0.00637307
0.00637926
0.00638604
0.00639302
0.00639988
0.00640642
0.00641255
0.00641825
0.00642356
0.00642855
0.00643323
0.00643756
0.00644142
0.00644462
0.00644692
0.00644804
0.00644779
0.00644602
0.00644278
0.00643824
0.0064327
0.00642656
0.00642019
0.0064139
0.00640781
0.00640185
0.00639568
0.00638875
0.00638035
0.00636975
0.00635625
0.00633939
0.00631894
0.006295
0.00626799
0.00623858
0.00620766
0.00617626
0.0061454
0.0061161
0.00608925
0.00606567
0.00604611
0.00603122
0.00602154
0.00601734
0.00601857
0.00602476
0.0060351
0.00604868
0.00606465
0.00608245
0.00610188
0.00612294
0.00614575
0.00617036
0.00619667
0.00622449
0.0062535
0.00628329
0.00631323
0.00634242
0.00636959
0.00639328
0.00641208
0.00642507
0.00643211
0.0064339
0.00643176
0.00642705
0.00642059
0.00641224
0.0064009
0.00638492
0.00636279
0.00633394
0.00629918
0.00626076
0.00622181
0.00618554
0.00615438
0.00612929
0.00610953
0.0060929
0.00607635
0.00605677
0.00603175
0.00600012
0.00596219
0.00591966
0.00587528
0.00583235
0.00579427
0.00576405
0.00574407
0.00573589
0.00574025
0.00575707
0.00578562
0.00582464
0.00587244
0.00592709
0.0059865
0.00604858
0.00611129
0.00617277
0.00623138
0.00628578
0.00633493
0.0063781
0.00641485
0.00644505
0.0064688
0.0064864
0.00649837
0.00650537
0.00650823
0.00650786
0.00650528
0.00650152
0.0064976
0.00649444
0.0064928
0.00649321
0.00649596
0.00650107
0.00650827
0.00651714
0.00652705
0.00653738
0.00654746
0.00655673
0.00656477
0.0065713
0.00657621
0.00657954
0.00658143
0.00658215
0.00658199
0.00658126
0.00658025
0.00657918
0.00657821
0.00657741
0.00657676
0.00657619
0.00657557
0.00657479
0.00657374
0.00657238
0.00657071
0.00656886
0.00656691
0.00656506
0.0065634
0.00656215
0.00656117
0.00656041
0.00655984
0.00655974
0.00655916
0.00655748
0.00655748
0.04
0.0276139
0.0300609
0.0275967
0.0199139
0.0180433
0.0208938
0.0217789
0.0200273
0.0189984
0.0188947
0.0186997
0.0183023
0.0181527
0.0179272
0.0176012
0.0173611
0.0172595
0.0170678
0.0168508
0.0166935
0.0165715
0.0164039
0.0162562
0.0161391
0.01602
0.0158843
0.0157736
0.0156737
0.015568
0.0154637
0.0153787
0.0152974
0.0152173
0.0151471
0.0150902
0.0150356
0.0149859
0.0149447
0.0149088
0.0148722
0.0148379
0.0148058
0.0147728
0.0147371
0.0147017
0.0146659
0.0146284
0.01459
0.0145524
0.0145152
0.0144778
0.0144417
0.0144082
0.0143772
0.0143491
0.0143257
0.0143075
0.0142941
0.0142859
0.0142843
0.0142885
0.0142986
0.0143147
0.0143375
0.0143643
0.0143961
0.0144312
0.0144698
0.0145091
0.0145534
0.0145992
0.014649
0.0146995
0.0147559
0.0148096
0.0148657
0.0149189
0.0149762
0.015026
0.0150803
0.0151297
0.0151834
0.0152248
0.0152713
0.0153062
0.0153446
0.015368
0.0154036
0.0154298
0.0154705
0.0155014
0.0155525
0.0155893
0.0156386
0.0156643
0.0156993
0.0157014
0.0157094
0.015683
0.0156675
0.0156189
0.0155882
0.0155282
0.0154926
0.0154298
0.0153951
0.0153329
0.0153017
0.0152409
0.0152101
0.0151484
0.0151161
0.0150476
0.0150068
0.01493
0.0148769
0.0147855
0.0147197
0.0146175
0.0145376
0.0144265
0.0143407
0.0142264
0.0141366
0.0140261
0.0139393
0.0138344
0.0137525
0.0136582
0.0135833
0.0134989
0.0134329
0.0133607
0.0133028
0.0132411
0.013192
0.0131402
0.0130974
0.0130538
0.0130177
0.0129809
0.0129496
0.0129194
0.0128938
0.012869
0.0128482
0.0128297
0.012814
0.0127999
0.0127886
0.0127788
0.01277
0.0127616
0.0127538
0.0127455
0.0127361
0.012726
0.0127151
0.0127031
0.0126903
0.0126775
0.0126649
0.0126527
0.0126415
0.0126317
0.0126233
0.0126163
0.0126105
0.0126059
0.0126021
0.0125991
0.0125967
0.0125952
0.0125944
0.0125948
0.0125966
0.0126
0.0126052
0.0126122
0.0126212
0.0126317
0.0126435
0.0126562
0.0126696
0.0126833
0.012697
0.0127108
0.0127247
0.0127388
0.0127535
0.012769
0.0127855
0.0128032
0.0128221
0.0128421
0.0128629
0.0128843
0.0129059
0.0129273
0.0129479
0.0129672
0.0129849
0.0130005
0.0130134
0.0130235
0.0130302
0.0130336
0.0130336
0.0130303
0.0130238
0.0130146
0.013003
0.0129894
0.0129743
0.0129581
0.0129412
0.0129239
0.0129066
0.0128895
0.0128728
0.0128565
0.0128407
0.0128255
0.012811
0.0127971
0.0127841
0.0127721
0.0127613
0.012752
0.0127445
0.0127389
0.0127355
0.0127342
0.0127351
0.0127379
0.0127424
0.0127482
0.0127548
0.0127619
0.0127691
0.012776
0.0127825
0.0127884
0.0127938
0.0127987
0.0128031
0.012807
0.0128104
0.0128133
0.0128155
0.0128168
0.012817
0.012816
0.0128135
0.0128096
0.0128044
0.0127981
0.0127909
0.0127831
0.0127749
0.0127664
0.0127573
0.0127475
0.0127365
0.0127237
0.0127084
0.0126903
0.0126691
0.0126446
0.0126172
0.0125873
0.0125558
0.0125235
0.0124913
0.0124604
0.0124316
0.0124059
0.0123839
0.0123664
0.0123539
0.012347
0.0123458
0.0123501
0.0123595
0.0123732
0.0123902
0.0124096
0.012431
0.012454
0.0124785
0.0125047
0.0125325
0.0125617
0.012592
0.0126231
0.0126545
0.0126853
0.0127147
0.0127412
0.0127634
0.0127801
0.0127903
0.012794
0.012792
0.0127856
0.012776
0.0127642
0.01275
0.0127326
0.0127104
0.0126823
0.012648
0.0126085
0.0125661
0.012524
0.0124853
0.0124524
0.0124263
0.012406
0.0123895
0.0123737
0.0123558
0.0123334
0.0123056
0.0122728
0.012237
0.0122008
0.0121677
0.0121409
0.0121233
0.0121172
0.0121239
0.0121438
0.0121766
0.0122212
0.0122763
0.0123397
0.0124094
0.0124831
0.0125586
0.0126338
0.0127066
0.0127755
0.012839
0.0128963
0.0129465
0.0129893
0.0130247
0.0130529
0.0130743
0.0130895
0.0130994
0.0131049
0.0131071
0.013107
0.0131058
0.0131044
0.0131039
0.013105
0.013108
0.0131134
0.0131209
0.0131303
0.0131411
0.0131526
0.0131642
0.0131752
0.0131851
0.0131935
0.0132001
0.0132049
0.013208
0.0132097
0.0132101
0.0132098
0.013209
0.0132081
0.0132074
0.0132069
0.0132069
0.0132072
0.0132077
0.0132083
0.0132089
0.0132092
0.0132092
0.0132089
0.0132084
0.0132077
0.0132071
0.0132065
0.0132061
0.0132058
0.0132057
0.0132053
0.0132042
0.0132026
0.0132009
0.0132009
0.04
0.0278771
0.0264977
0.0239831
0.0250989
0.0271198
0.0262107
0.0243185
0.0242573
0.0247382
0.0241986
0.0234431
0.0231678
0.0230184
0.0226457
0.0223529
0.0221512
0.0219106
0.0216335
0.0214548
0.0212837
0.0210803
0.0208873
0.0207471
0.0205947
0.0204361
0.0202973
0.0201795
0.0200508
0.0199306
0.0198275
0.019733
0.0196374
0.019557
0.01949
0.0194297
0.0193755
0.0193353
0.0193028
0.0192741
0.0192506
0.0192334
0.0192169
0.0192003
0.0191848
0.01917
0.0191535
0.0191364
0.0191201
0.0191042
0.0190882
0.0190737
0.0190618
0.0190526
0.0190463
0.0190447
0.0190489
0.0190584
0.0190735
0.0190956
0.0191249
0.01916
0.0192023
0.0192523
0.019309
0.0193706
0.0194388
0.0195114
0.0195877
0.0196668
0.0197517
0.0198384
0.01993
0.0200244
0.0201241
0.0202221
0.0203245
0.0204249
0.0205277
0.0206252
0.0207288
0.0208261
0.0209261
0.0210172
0.0211138
0.0211964
0.0212822
0.0213561
0.0214405
0.0215119
0.0215976
0.0216741
0.0217677
0.0218432
0.0219313
0.0219941
0.0220642
0.0220974
0.0221365
0.0221373
0.0221475
0.0221184
0.0221074
0.0220605
0.022037
0.0219781
0.0219502
0.0218847
0.0218519
0.0217808
0.021745
0.0216643
0.0216205
0.0215296
0.0214735
0.0213656
0.0212952
0.0211705
0.0210825
0.0209421
0.0208412
0.0206887
0.0205781
0.0204219
0.0203079
0.0201525
0.0200405
0.0198925
0.019785
0.019647
0.0195478
0.0194227
0.0193321
0.0192214
0.0191412
0.0190445
0.0189734
0.0188902
0.0188279
0.0187561
0.0187012
0.0186405
0.0185928
0.0185412
0.0185007
0.0184587
0.018425
0.0183912
0.0183647
0.0183388
0.0183178
0.0182977
0.0182813
0.018265
0.0182501
0.0182353
0.0182209
0.0182055
0.01819
0.0181741
0.0181582
0.0181421
0.0181268
0.0181125
0.0180994
0.0180879
0.018078
0.0180699
0.0180632
0.0180577
0.0180534
0.0180499
0.0180473
0.0180454
0.0180444
0.0180446
0.0180459
0.0180488
0.0180534
0.0180597
0.0180676
0.018077
0.0180878
0.0180994
0.0181117
0.0181245
0.0181375
0.0181506
0.0181638
0.0181774
0.0181914
0.0182062
0.0182219
0.0182387
0.0182566
0.0182758
0.0182959
0.0183168
0.018338
0.0183591
0.0183797
0.0183992
0.0184171
0.0184331
0.0184465
0.0184571
0.0184645
0.0184687
0.0184695
0.018467
0.0184614
0.018453
0.0184422
0.0184294
0.0184151
0.0183997
0.0183837
0.0183672
0.0183508
0.0183347
0.018319
0.0183039
0.0182894
0.0182757
0.0182626
0.0182503
0.018239
0.0182286
0.0182193
0.0182114
0.0182051
0.0182004
0.0181976
0.0181967
0.0181977
0.0182004
0.0182048
0.0182106
0.0182174
0.018225
0.0182328
0.0182407
0.0182483
0.0182553
0.0182616
0.0182672
0.0182718
0.0182756
0.0182785
0.0182806
0.018282
0.0182826
0.0182825
0.0182816
0.0182801
0.0182777
0.0182747
0.018271
0.0182667
0.0182617
0.0182559
0.0182494
0.0182418
0.0182328
0.0182221
0.0182093
0.0181941
0.0181762
0.0181556
0.0181324
0.0181069
0.0180796
0.0180512
0.0180225
0.0179941
0.0179669
0.0179416
0.017919
0.0178996
0.0178842
0.0178733
0.0178672
0.0178663
0.0178703
0.0178789
0.0178914
0.0179071
0.0179253
0.0179455
0.0179674
0.017991
0.0180163
0.0180434
0.0180722
0.0181023
0.0181336
0.0181653
0.0181969
0.0182273
0.0182552
0.0182793
0.0182982
0.0183112
0.0183182
0.0183196
0.0183167
0.0183106
0.018302
0.018291
0.0182767
0.0182579
0.0182336
0.0182035
0.0181687
0.0181311
0.0180937
0.0180593
0.0180303
0.0180075
0.0179903
0.0179768
0.0179643
0.01795
0.0179316
0.0179083
0.0178802
0.0178489
0.0178172
0.017788
0.0177645
0.0177496
0.0177455
0.0177535
0.0177742
0.0178074
0.0178521
0.0179069
0.0179701
0.0180395
0.0181129
0.0181882
0.0182632
0.0183361
0.0184052
0.0184692
0.0185269
0.0185778
0.0186214
0.0186577
0.0186868
0.0187093
0.0187258
0.018737
0.0187441
0.0187479
0.0187496
0.0187502
0.0187509
0.0187523
0.0187553
0.0187602
0.0187673
0.0187764
0.0187873
0.0187996
0.0188125
0.0188255
0.0188379
0.0188493
0.018859
0.018867
0.0188731
0.0188774
0.0188801
0.0188814
0.0188817
0.0188814
0.0188808
0.0188802
0.0188799
0.0188798
0.0188802
0.0188808
0.0188815
0.0188824
0.0188831
0.0188837
0.0188841
0.0188843
0.0188845
0.0188846
0.0188848
0.0188852
0.0188856
0.018886
0.0188863
0.0188862
0.0188855
0.0188845
0.0188845
0.04
0.0295864
0.0309301
0.0312889
0.0313756
0.0289791
0.0273288
0.028241
0.0290663
0.0279413
0.026877
0.0269564
0.0270017
0.0264665
0.0260124
0.0258927
0.0256643
0.0253317
0.0251045
0.0249494
0.0247062
0.0244826
0.0243259
0.0241705
0.0239757
0.0238205
0.0236922
0.0235537
0.0234094
0.0232974
0.0231922
0.023084
0.0229865
0.0229117
0.0228396
0.0227744
0.0227245
0.0226891
0.0226567
0.0226338
0.0226215
0.022615
0.0226093
0.022609
0.0226115
0.0226139
0.0226152
0.0226185
0.0226218
0.0226247
0.0226279
0.0226336
0.0226411
0.0226511
0.0226648
0.0226839
0.0227081
0.0227377
0.0227738
0.0228174
0.0228673
0.0229237
0.0229882
0.0230602
0.0231385
0.0232232
0.023315
0.0234109
0.0235113
0.023616
0.0237256
0.0238378
0.0239559
0.0240772
0.0242028
0.0243294
0.0244607
0.0245895
0.0247207
0.0248502
0.0249832
0.0251096
0.02524
0.025365
0.0254913
0.0256056
0.0257251
0.0258352
0.0259507
0.0260562
0.0261764
0.0262882
0.0264115
0.0265202
0.0266407
0.0267364
0.0268347
0.0269003
0.0269693
0.0269999
0.0270364
0.027036
0.0270489
0.0270258
0.0270237
0.0269853
0.0269739
0.0269248
0.0269063
0.026846
0.0268208
0.0267476
0.0267103
0.0266209
0.0265697
0.0264579
0.0263881
0.0262556
0.0261663
0.0260112
0.0259069
0.0257365
0.0256195
0.0254398
0.0253189
0.0251365
0.0250147
0.0248366
0.0247192
0.0245489
0.0244378
0.02428
0.0241779
0.0240339
0.0239411
0.0238131
0.0237295
0.0236157
0.0235405
0.0234411
0.0233731
0.0232861
0.0232258
0.0231515
0.0230979
0.0230352
0.02299
0.0229384
0.0229
0.0228589
0.0228279
0.0227943
0.022768
0.0227407
0.0227174
0.0226924
0.0226701
0.0226468
0.0226245
0.0226012
0.0225793
0.0225575
0.0225368
0.0225171
0.0224996
0.0224838
0.02247
0.0224581
0.0224484
0.0224401
0.0224332
0.0224276
0.0224232
0.0224197
0.0224173
0.0224162
0.0224164
0.0224181
0.0224214
0.0224264
0.0224331
0.0224412
0.0224508
0.0224616
0.0224732
0.0224855
0.0224985
0.0225119
0.0225256
0.0225399
0.0225547
0.0225703
0.0225867
0.0226043
0.022623
0.0226429
0.0226639
0.0226858
0.0227081
0.0227305
0.0227524
0.0227733
0.0227926
0.02281
0.0228248
0.0228368
0.0228456
0.022851
0.0228529
0.0228515
0.0228468
0.0228392
0.022829
0.0228168
0.0228029
0.0227878
0.022772
0.0227559
0.0227398
0.0227241
0.022709
0.0226946
0.022681
0.0226683
0.0226565
0.0226456
0.0226357
0.0226268
0.0226192
0.0226128
0.0226079
0.0226045
0.0226028
0.0226027
0.0226044
0.0226079
0.0226129
0.0226193
0.022627
0.0226355
0.0226447
0.022654
0.0226632
0.0226717
0.0226794
0.022686
0.0226914
0.0226954
0.0226982
0.0227
0.022701
0.0227014
0.0227014
0.0227014
0.0227013
0.0227012
0.0227009
0.0227004
0.0226993
0.0226974
0.0226942
0.0226896
0.022683
0.0226743
0.0226631
0.0226494
0.0226331
0.0226143
0.0225932
0.0225702
0.0225457
0.0225204
0.0224947
0.0224693
0.0224447
0.0224213
0.0223999
0.0223808
0.0223646
0.0223518
0.022343
0.0223384
0.0223382
0.0223424
0.0223507
0.0223626
0.0223776
0.0223951
0.0224147
0.0224363
0.0224598
0.0224853
0.0225127
0.022542
0.022573
0.0226054
0.0226386
0.0226718
0.022704
0.0227337
0.0227598
0.0227811
0.0227966
0.0228063
0.0228104
0.0228099
0.0228056
0.0227981
0.0227876
0.0227735
0.0227549
0.022731
0.0227017
0.0226679
0.0226315
0.0225949
0.022561
0.0225316
0.0225079
0.0224892
0.0224741
0.0224601
0.0224447
0.0224259
0.0224026
0.022375
0.0223446
0.0223138
0.0222854
0.0222626
0.0222481
0.0222441
0.022252
0.0222725
0.0223053
0.0223497
0.0224042
0.0224672
0.0225365
0.02261
0.0226856
0.022761
0.0228344
0.0229041
0.0229687
0.0230271
0.0230786
0.0231228
0.0231597
0.0231894
0.0232125
0.0232296
0.0232415
0.0232494
0.0232542
0.023257
0.023259
0.023261
0.0232639
0.0232683
0.0232746
0.023283
0.0232934
0.0233054
0.0233186
0.0233324
0.0233462
0.0233594
0.0233713
0.0233817
0.0233902
0.0233966
0.0234011
0.0234037
0.0234048
0.0234047
0.0234037
0.0234023
0.0234009
0.0233995
0.0233985
0.0233978
0.0233976
0.0233976
0.0233979
0.0233983
0.0233987
0.0233991
0.0233994
0.0233998
0.0234002
0.0234007
0.0234013
0.0234021
0.0234028
0.0234033
0.0234038
0.0234041
0.0234041
0.0234041
0.04
0.0307738
0.0318644
0.0305103
0.0298805
0.0302268
0.0314577
0.0309121
0.0294179
0.0292035
0.0299268
0.0296872
0.0288392
0.0285629
0.0286446
0.0283913
0.0279841
0.0278019
0.0276607
0.0274085
0.0271764
0.0270366
0.0268599
0.0266575
0.0265002
0.0263745
0.026217
0.0260688
0.0259515
0.0258404
0.0257168
0.0256136
0.0255272
0.0254425
0.025361
0.0253005
0.0252497
0.0252041
0.0251692
0.0251503
0.0251371
0.0251302
0.0251323
0.0251419
0.0251525
0.0251662
0.0251831
0.0252012
0.0252181
0.0252365
0.0252561
0.0252767
0.0252985
0.0253236
0.0253526
0.0253859
0.0254238
0.0254678
0.0255184
0.025575
0.0256378
0.0257082
0.0257862
0.0258704
0.0259615
0.0260602
0.0261646
0.0262734
0.0263879
0.0265068
0.0266297
0.0267567
0.0268894
0.0270252
0.0271659
0.0273093
0.0274556
0.0276014
0.0277509
0.0278986
0.0280472
0.0281937
0.0283439
0.0284876
0.0286314
0.0287701
0.0289119
0.0290441
0.0291814
0.0293157
0.0294596
0.0295958
0.0297427
0.0298808
0.0300244
0.0301463
0.0302692
0.0303648
0.030458
0.0305174
0.0305789
0.0306087
0.0306456
0.0306502
0.0306713
0.0306605
0.0306692
0.0306445
0.0306465
0.0306082
0.0305986
0.0305461
0.0305248
0.0304496
0.0304111
0.0303134
0.0302531
0.0301269
0.0300475
0.0298959
0.0297963
0.0296238
0.0295121
0.0293242
0.0292046
0.0290099
0.0288887
0.0286921
0.028573
0.0283812
0.0282674
0.0280839
0.0279777
0.027807
0.027709
0.0275519
0.0274624
0.0273204
0.0272374
0.0271096
0.0270338
0.0269201
0.0268499
0.0267506
0.0266877
0.0266018
0.0265458
0.0264742
0.0264259
0.0263659
0.0263246
0.0262758
0.0262396
0.0261978
0.0261654
0.0261288
0.0260975
0.0260634
0.0260334
0.0260012
0.0259717
0.0259418
0.0259148
0.0258883
0.0258646
0.0258429
0.0258241
0.0258072
0.0257929
0.0257806
0.0257703
0.0257615
0.0257542
0.0257482
0.0257436
0.0257402
0.0257383
0.0257379
0.0257391
0.025742
0.0257466
0.0257528
0.0257605
0.0257696
0.02578
0.0257914
0.0258037
0.0258169
0.0258308
0.0258454
0.0258606
0.0258766
0.0258935
0.0259114
0.0259304
0.0259506
0.025972
0.0259942
0.026017
0.0260399
0.0260625
0.0260842
0.0261044
0.0261225
0.0261382
0.026151
0.0261606
0.0261668
0.0261694
0.0261684
0.0261642
0.0261568
0.0261468
0.0261346
0.0261206
0.0261054
0.0260895
0.0260733
0.0260573
0.0260417
0.0260269
0.026013
0.0260001
0.0259883
0.0259775
0.0259678
0.0259591
0.0259516
0.0259453
0.0259402
0.0259364
0.0259341
0.0259332
0.0259339
0.0259363
0.0259402
0.0259457
0.0259526
0.0259608
0.02597
0.0259799
0.0259901
0.026
0.0260094
0.0260176
0.0260245
0.0260299
0.0260336
0.0260358
0.0260368
0.0260371
0.0260369
0.0260368
0.0260372
0.0260381
0.0260396
0.0260415
0.0260435
0.026045
0.0260454
0.0260442
0.0260408
0.0260348
0.0260257
0.0260136
0.0259985
0.0259806
0.0259605
0.0259385
0.0259154
0.0258918
0.0258682
0.0258453
0.0258233
0.0258026
0.0257834
0.025766
0.0257507
0.0257378
0.0257277
0.0257207
0.0257172
0.0257172
0.0257207
0.0257276
0.0257375
0.0257502
0.0257654
0.0257828
0.0258023
0.0258239
0.0258475
0.0258734
0.0259014
0.0259314
0.025963
0.0259958
0.0260287
0.0260607
0.0260906
0.026117
0.0261387
0.0261551
0.0261658
0.026171
0.0261714
0.0261675
0.0261599
0.0261485
0.0261332
0.0261133
0.0260884
0.0260587
0.0260249
0.0259889
0.0259527
0.0259187
0.0258886
0.0258634
0.0258428
0.0258256
0.0258095
0.0257925
0.0257728
0.0257493
0.0257223
0.0256929
0.0256633
0.0256362
0.0256145
0.0256008
0.0255972
0.0256052
0.0256254
0.0256577
0.0257013
0.0257549
0.025817
0.0258853
0.0259579
0.0260326
0.0261072
0.0261799
0.026249
0.026313
0.0263709
0.0264219
0.0264656
0.026502
0.0265314
0.0265541
0.0265709
0.0265827
0.0265906
0.0265956
0.0265989
0.0266014
0.0266041
0.0266078
0.0266129
0.0266198
0.0266286
0.0266393
0.0266514
0.0266645
0.0266781
0.0266916
0.0267044
0.0267159
0.0267258
0.0267337
0.0267395
0.0267432
0.0267449
0.0267449
0.0267435
0.0267412
0.0267382
0.026735
0.026732
0.0267292
0.0267269
0.0267251
0.0267238
0.0267228
0.0267222
0.0267218
0.0267216
0.0267214
0.0267214
0.0267216
0.0267219
0.0267224
0.0267231
0.0267239
0.0267247
0.0267255
0.0267262
0.0267266
0.0267266
0.04
0.0287567
0.0292305
0.0304976
0.031298
0.0312213
0.0309928
0.0304779
0.0308749
0.0313193
0.0308299
0.0301209
0.0302361
0.0304589
0.0301091
0.0296702
0.0296134
0.0295812
0.0293195
0.0290804
0.0289764
0.0288406
0.0286365
0.0284884
0.0283761
0.0282301
0.0280776
0.0279688
0.0278615
0.0277381
0.027628
0.0275422
0.0274508
0.02736
0.0272861
0.0272249
0.0271626
0.0271112
0.0270751
0.027048
0.027026
0.0270175
0.0270197
0.0270275
0.0270406
0.0270618
0.0270861
0.0271118
0.0271393
0.0271693
0.0271995
0.0272306
0.0272638
0.0273
0.027339
0.0273819
0.0274294
0.0274828
0.0275415
0.0276056
0.0276764
0.0277544
0.0278384
0.0279286
0.0280267
0.0281313
0.0282408
0.028356
0.0284771
0.0286017
0.0287306
0.0288645
0.0290032
0.0291457
0.0292935
0.0294442
0.0295978
0.0297533
0.029911
0.0300669
0.0302251
0.0303831
0.0305411
0.0306949
0.0308515
0.0310048
0.0311569
0.0313046
0.0314591
0.0316112
0.0317679
0.0319229
0.0320877
0.0322446
0.0324022
0.0325457
0.0326878
0.032805
0.0329157
0.0330008
0.0330825
0.0331363
0.0331929
0.0332242
0.0332634
0.0332774
0.0333057
0.0333055
0.0333239
0.033311
0.0333188
0.033288
0.0332831
0.0332307
0.0332057
0.0331272
0.0330816
0.0329716
0.0329033
0.0327657
0.0326766
0.0325121
0.0324092
0.0322254
0.0321122
0.0319154
0.0317992
0.0315953
0.0314791
0.0312744
0.0311625
0.030962
0.0308559
0.0306641
0.0305657
0.0303851
0.030293
0.0301255
0.0300398
0.0298852
0.0298043
0.0296646
0.0295886
0.0294632
0.0293931
0.0292837
0.0292195
0.0291252
0.0290685
0.028989
0.028938
0.028871
0.028826
0.0287683
0.0287261
0.0286756
0.0286356
0.028589
0.0285499
0.0285072
0.0284696
0.02843
0.0283951
0.0283605
0.0283298
0.0283004
0.0282751
0.028252
0.028232
0.0282142
0.0281991
0.0281859
0.0281745
0.0281646
0.0281565
0.0281497
0.0281444
0.0281407
0.0281386
0.0281382
0.0281395
0.0281425
0.0281473
0.0281536
0.0281616
0.028171
0.0281818
0.0281937
0.0282066
0.0282205
0.0282351
0.0282505
0.0282668
0.028284
0.0283023
0.0283217
0.0283424
0.028364
0.0283863
0.0284088
0.0284311
0.0284526
0.0284728
0.028491
0.0285067
0.0285196
0.0285292
0.0285353
0.0285378
0.0285368
0.0285322
0.0285245
0.0285139
0.028501
0.0284862
0.0284702
0.0284534
0.0284364
0.0284197
0.0284037
0.0283885
0.0283744
0.0283616
0.0283499
0.0283395
0.0283303
0.0283222
0.0283152
0.0283094
0.0283048
0.0283014
0.0282994
0.0282987
0.0282996
0.0283019
0.0283058
0.0283112
0.0283181
0.0283263
0.0283354
0.0283453
0.0283554
0.0283653
0.0283744
0.0283822
0.0283885
0.028393
0.0283957
0.0283967
0.0283965
0.0283955
0.0283944
0.0283936
0.0283937
0.0283949
0.0283971
0.0284002
0.0284035
0.0284065
0.0284082
0.0284079
0.0284049
0.0283985
0.0283884
0.0283748
0.0283577
0.0283378
0.0283158
0.0282925
0.0282689
0.0282456
0.0282234
0.0282027
0.0281836
0.0281664
0.0281509
0.0281372
0.0281252
0.0281152
0.0281073
0.0281017
0.0280985
0.0280978
0.0280997
0.0281041
0.0281109
0.0281202
0.0281318
0.0281456
0.0281617
0.0281801
0.0282007
0.0282237
0.0282492
0.0282771
0.028307
0.0283384
0.0283702
0.0284014
0.0284307
0.0284569
0.0284788
0.0284958
0.0285075
0.0285137
0.0285148
0.0285112
0.028503
0.0284905
0.0284737
0.0284524
0.0284265
0.0283964
0.0283628
0.0283271
0.0282911
0.0282566
0.0282254
0.0281981
0.0281749
0.0281548
0.0281361
0.0281171
0.028096
0.0280721
0.0280453
0.0280166
0.0279879
0.0279617
0.0279405
0.0279269
0.0279229
0.02793
0.0279488
0.0279794
0.0280212
0.0280729
0.0281328
0.0281991
0.0282697
0.0283425
0.0284154
0.0284864
0.028554
0.0286167
0.0286733
0.0287232
0.0287659
0.0288013
0.0288298
0.0288517
0.0288678
0.0288791
0.0288867
0.0288915
0.0288948
0.0288974
0.0289002
0.0289039
0.028909
0.0289157
0.0289242
0.0289342
0.0289456
0.0289578
0.0289704
0.0289828
0.0289945
0.029005
0.0290138
0.0290207
0.0290254
0.0290279
0.0290283
0.0290268
0.0290238
0.0290197
0.0290148
0.0290095
0.0290043
0.0289994
0.028995
0.0289912
0.0289879
0.0289854
0.0289833
0.0289816
0.0289803
0.0289793
0.0289786
0.028978
0.0289778
0.0289778
0.0289779
0.0289783
0.0289789
0.0289797
0.0289806
0.0289816
0.0289816
0.04
0.0286542
0.0293454
0.0299235
0.0301547
0.0302868
0.0305362
0.0310533
0.0314476
0.0308969
0.0306316
0.0311206
0.0313242
0.0308004
0.0305422
0.0307592
0.0307631
0.0304272
0.0302623
0.0302847
0.0301732
0.0299645
0.0298605
0.0297967
0.0296581
0.0295213
0.0294406
0.0293507
0.029229
0.0291334
0.0290602
0.0289716
0.0288775
0.0288071
0.028742
0.0286695
0.0286054
0.0285586
0.0285139
0.0284733
0.0284474
0.0284348
0.0284268
0.0284285
0.0284425
0.0284633
0.0284869
0.0285167
0.0285511
0.0285864
0.0286224
0.0286615
0.0287024
0.0287451
0.0287905
0.0288401
0.0288939
0.0289521
0.0290149
0.0290836
0.0291585
0.0292386
0.0293244
0.0294177
0.0295176
0.0296222
0.0297331
0.0298504
0.0299718
0.0300969
0.0302275
0.0303627
0.0305019
0.0306459
0.0307951
0.0309476
0.0311041
0.0312625
0.0314222
0.0315826
0.0317454
0.0319062
0.0320668
0.0322283
0.0323909
0.0325486
0.0327078
0.0328685
0.0330318
0.0331923
0.03336
0.0335304
0.0337042
0.033872
0.034042
0.0342016
0.0343541
0.0344867
0.0346117
0.0347154
0.0348109
0.0348837
0.0349552
0.0350074
0.035061
0.0350951
0.0351387
0.0351606
0.0351922
0.035201
0.0352247
0.0352151
0.0352225
0.0351935
0.0351825
0.0351226
0.03509
0.0350012
0.034943
0.0348215
0.0347445
0.0345941
0.0344988
0.0343253
0.0342202
0.034028
0.0339169
0.0337134
0.0336019
0.0333916
0.0332825
0.0330722
0.0329685
0.0327617
0.0326642
0.0324658
0.0323741
0.0321847
0.032098
0.0319209
0.0318375
0.0316731
0.0315942
0.031445
0.0313696
0.0312367
0.0311674
0.0310509
0.0309868
0.0308872
0.0308292
0.0307432
0.0306896
0.0306159
0.0305653
0.0304995
0.0304509
0.0303918
0.030344
0.0302893
0.0302436
0.030194
0.0301508
0.0301066
0.0300685
0.030031
0.0299984
0.0299679
0.0299418
0.0299177
0.0298969
0.0298783
0.0298622
0.0298476
0.0298349
0.0298238
0.0298144
0.0298064
0.0298001
0.0297956
0.0297928
0.0297918
0.0297928
0.0297958
0.0298005
0.0298072
0.0298156
0.0298255
0.0298367
0.0298491
0.0298625
0.0298766
0.0298916
0.0299075
0.0299244
0.0299425
0.0299616
0.0299818
0.0300027
0.030024
0.0300451
0.0300656
0.0300847
0.030102
0.0301169
0.0301289
0.0301377
0.030143
0.0301446
0.0301425
0.0301368
0.0301278
0.0301159
0.0301015
0.0300852
0.0300675
0.0300492
0.0300307
0.0300125
0.0299951
0.0299788
0.0299638
0.0299501
0.0299379
0.029927
0.0299173
0.0299089
0.0299016
0.0298955
0.0298905
0.0298868
0.0298844
0.0298835
0.029884
0.029886
0.0298896
0.0298946
0.0299011
0.0299087
0.0299171
0.0299261
0.0299352
0.0299439
0.0299517
0.0299581
0.0299629
0.0299659
0.0299671
0.0299666
0.0299651
0.0299628
0.0299606
0.0299589
0.0299584
0.0299591
0.0299611
0.0299641
0.0299676
0.0299706
0.0299724
0.0299718
0.0299682
0.0299608
0.0299493
0.0299339
0.0299148
0.0298929
0.029869
0.0298444
0.0298199
0.0297967
0.0297753
0.0297563
0.0297398
0.0297255
0.0297133
0.029703
0.0296942
0.0296869
0.0296811
0.0296767
0.0296739
0.0296724
0.0296725
0.029674
0.0296774
0.0296827
0.0296901
0.0296998
0.0297119
0.0297263
0.0297432
0.0297628
0.0297852
0.0298103
0.0298379
0.0298674
0.0298976
0.0299275
0.0299558
0.0299812
0.0300029
0.0300201
0.0300323
0.0300392
0.0300407
0.0300369
0.030028
0.030014
0.0299953
0.0299721
0.0299447
0.0299137
0.0298798
0.0298441
0.029808
0.0297729
0.0297402
0.0297106
0.0296844
0.0296609
0.0296389
0.029617
0.0295939
0.0295688
0.0295417
0.0295132
0.0294851
0.0294594
0.0294385
0.0294249
0.0294204
0.0294265
0.029444
0.0294729
0.0295126
0.029562
0.0296196
0.0296836
0.0297518
0.0298223
0.029893
0.029962
0.0300277
0.0300886
0.0301436
0.030192
0.0302333
0.0302675
0.0302948
0.0303157
0.030331
0.0303416
0.0303486
0.030353
0.030356
0.0303583
0.030361
0.0303644
0.0303691
0.0303753
0.0303829
0.0303919
0.030402
0.0304129
0.030424
0.0304349
0.0304451
0.0304541
0.0304615
0.030467
0.0304703
0.0304714
0.0304704
0.0304674
0.0304628
0.0304568
0.03045
0.0304428
0.0304355
0.0304285
0.030422
0.0304162
0.0304111
0.0304067
0.0304031
0.0304001
0.0303976
0.0303955
0.0303938
0.0303925
0.0303914
0.0303907
0.0303903
0.0303901
0.0303904
0.0303909
0.0303919
0.0303934
0.0303934
0.04
0.0293666
0.0299266
0.0295984
0.0299752
0.030446
0.0306314
0.0306743
0.0306631
0.0308254
0.0312865
0.0312393
0.0308842
0.0309417
0.0312803
0.0311898
0.0308922
0.0308871
0.0310147
0.0309017
0.0307175
0.0306874
0.0306808
0.030565
0.0304547
0.0304129
0.0303516
0.0302512
0.0301775
0.0301271
0.0300529
0.0299725
0.0299138
0.0298577
0.0297873
0.0297239
0.0296734
0.0296212
0.0295676
0.0295277
0.029498
0.0294723
0.029456
0.0294546
0.0294616
0.0294749
0.0294975
0.0295281
0.0295614
0.0295979
0.0296384
0.0296813
0.0297253
0.0297722
0.0298222
0.0298754
0.0299322
0.0299929
0.0300581
0.0301287
0.0302039
0.0302838
0.0303703
0.0304631
0.0305606
0.0306639
0.0307743
0.0308892
0.0310078
0.0311321
0.0312614
0.0313938
0.0315312
0.0316742
0.0318219
0.0319736
0.0321296
0.0322877
0.0324482
0.0326103
0.0327724
0.0329337
0.0330979
0.0332619
0.0334243
0.0335869
0.033754
0.0339202
0.0340869
0.0342572
0.0344348
0.034612
0.0347907
0.0349695
0.035149
0.0353168
0.0354762
0.0356224