# vtk DataFile Version 3.0
LBM output step 270
ASCII
DATASET STRUCTURED_POINTS
DIMENSIONS 400 100 1
ORIGIN 0 0 0
SPACING 1 1 1
POINT_DATA 40000
SCALARS velocity_magnitude double 1
LOOKUP_TABLE default
0
0
0
0
0
0
0
0
0
0
0
0
0
0
0
0
0
0
0
0
0
0
0
0
0
0
0
0
0
0
0
0
0
0
0
0
0
0
0
0
0
0
0
0
0
0
0
0
0
0
0
0
0
0
0
0
0
0
0
0
0
0
0
0
0
0
0
0
0
0
0
0
0
0
0
0
0
0
0
0
0
0
0
0
0
0
0
0
0
0
0
0
0
0
0
0
0
0
0
0
0
0
0
0
0
0
0
0
0
0
0
0
0
0
0
0
0
0
0
0
0
0
0
0
0
0
0
0
0
0
0
0
0
0
0
0
0
0
0
0
0
0
0
0
0
0
0
0
0
0
0
0
0
0
0
0
0
0
0
0
0
0
0
0
0
0
0
0
0
0
0
0
0
0
0
0
0
0
0
0
0
0
0
0
0
0
0
0
0
0
0
0
0
0
0
0
0
0
0
0
0
0
0
0
0
0
0
0
0
0
0
0
0
0
0
0
0
0
0
0
0
0
0
0
0
0
0
0
0
0
0
0
0
0
0
0
0
0
0
0
0
0
0
0
0
0
0
0
0
0
0
0
0
0
0
0
0
0
0
0
0
0
0
0
0
0
0
0
0
0
0
0
0
0
0
0
0
0
0
0
0
0
0
0
0
0
0
0
0
0
0
0
0
0
0
0
0
0
0
0
0
0
0
0
0
0
0
0
0
0
0
0
0
0
0
0
0
0
0
0
0
0
0
0
0
0
0
0
0
0
0
0
0
0
0
0
0
0
0
0
0
0
0
0
0
0
0
0
0
0
0
0
0
0
0
0
0
0
0
0
0
0
0
0
0
0
0
0
0
0
0
0
0
0
0
0
0
0
0
0
0
0
0
0
0
0
0
0
0
0
0
0
0
0
0
0
0
0
0
0
0.04
0.0147803
0.00948955
0.0157814
0.0178817
0.017458
0.0148865
0.014988
0.0154162
0.0157324
0.015522
0.0155553
0.0152865
0.015012
0.0147932
0.0146022
0.0143299
0.0140115
0.0138075
0.0135429
0.0133121
0.0130526
0.0128638
0.0126304
0.0124293
0.0122346
0.0120626
0.0118838
0.0117226
0.0115797
0.0114406
0.011311
0.0111934
0.0110898
0.0109863
0.0108919
0.0107956
0.0106934
0.0105665
0.0104052
0.0101842
0.00987698
0.0094509
0.00889176
0.00819323
0.00738349
0.00651392
0.00567279
0.00494936
0.0044325
0.00419114
0.00426569
0.0046319
0.00521638
0.005919
0.00664394
0.00731547
0.00788957
0.00835039
0.00870058
0.00895314
0.00913372
0.00927221
0.00938453
0.00948598
0.00959836
0.00972724
0.00987352
0.0100457
0.0102438
0.0104636
0.0107112
0.0109912
0.0112957
0.011614
0.0119384
0.0122642
0.0125709
0.0128385
0.0130658
0.0132532
0.0133936
0.0135
0.0135894
0.0136687
0.0137408
0.0138253
0.0139311
0.0140478
0.0141738
0.0143202
0.0144699
0.0146142
0.014758
0.014894
0.0150162
0.0151264
0.0152186
0.0153036
0.0153773
0.0154339
0.015491
0.0155445
0.0155782
0.0156087
0.0156356
0.015649
0.0156578
0.0156685
0.0156777
0.0156841
0.0156904
0.0157026
0.0157085
0.0157015
0.0156838
0.0156499
0.0155975
0.0155488
0.0155274
0.0155305
0.0155562
0.015636
0.0157696
0.0159055
0.0160081
0.0160893
0.0161699
0.0162289
0.0162309
0.0162411
0.0163897
0.016693
0.0170315
0.0173416
0.0177176
0.018224
0.0186974
0.0188954
0.0188164
0.0187435
0.0189194
0.0192377
0.0193485
0.0190984
0.0188132
0.0190461
0.0199631
0.021002
0.0212777
0.0204797
0.0193601
0.0192661
0.0210499
0.0240993
0.0262879
0.0253784
0.0209627
0.014796
0.00911592
0.00506535
0.00261566
0.00127786
0.000599581
0.000273253
0.000120411
5.13304e-05
2.10618e-05
9.32256e-06
4.09245e-06
4.76812e-06
9.43827e-07
3.63982e-06
2.85922e-06
1.30255e-06
2.45542e-06
4.08805e-07
1.20831e-06
6.9023e-07
2.80289e-07
4.02637e-07
2.0535e-08
1.53794e-07
6.03935e-08
3.38228e-08
2.68964e-08
4.03727e-09
9.5225e-09
1.59458e-09
1.91958e-09
8.96086e-10
3.3303e-10
2.26973e-10
2.67542e-10
2.86284e-10
2.12952e-10
1.40486e-10
1.11112e-10
9.50626e-11
6.85914e-11
4.28607e-11
2.60954e-11
1.1579e-11
9.33624e-12
1.3671e-11
2.2949e-12
1.04779e-11
5.64605e-12
6.18491e-12
4.01041e-12
4.53993e-12
4.56936e-12
1.89769e-14
9.87413e-13
1.06377e-12
1.25151e-12
7.25804e-13
6.68377e-13
7.01057e-13
8.18584e-13
8.25737e-13
6.51405e-13
6.17528e-13
8.02771e-13
7.57113e-13
6.40308e-13
6.29397e-13
6.66462e-13
6.34066e-13
5.78414e-13
5.46834e-13
5.30128e-13
4.83132e-13
4.34128e-13
4.21682e-13
3.8147e-13
3.1816e-13
3.17249e-13
2.78138e-13
2.31423e-13
2.22319e-13
1.91889e-13
1.51478e-13
1.59645e-13
1.1171e-13
1.04227e-13
9.12918e-14
7.00896e-14
6.59429e-14
5.13193e-14
3.43233e-14
4.3088e-14
2.38251e-14
2.1904e-14
1.57165e-14
1.13079e-14
8.37237e-15
9.26071e-15
1.90562e-15
3.79382e-15
3.77114e-15
9.63107e-16
1.44843e-15
1.56755e-15
4.5461e-15
5.46581e-15
7.92458e-15
5.00556e-15
4.89777e-15
2.02751e-15
1.5996e-15
0
0
0
0
0
0
0
0
0
0
0
0
0
0
0
0
0
0
0
0
0
0
0
0
0
0
0
0
0
0
0
0
0
0
0
0
0
0
0
0
0
0
0
0
0
0
0
0
0
0
0
0
0
0
0
0
0
0
0
0
0
0
0
0
0
0
0
0
0
0
0
0
0
0
0
0
0
0
0
0
0
0
0
0
0
0
0
0
0
0
0
0
0
0
0
0
0
0
0
0
0
0
0
0
0
0
0
0
0
0
0
0
0
0
0
0
0
0
0
0
0
0
0
0
0
0
0
0
0
0.04
0.0225263
0.0229315
0.0204265
0.0140903
0.0146065
0.0183364
0.0194926
0.0186126
0.0188332
0.0195877
0.019831
0.0197653
0.019817
0.0198
0.0195415
0.0194779
0.0193579
0.0193149
0.0190669
0.0190654
0.0189153
0.0188819
0.0187342
0.0187351
0.0186409
0.01861
0.0185514
0.0185442
0.0185053
0.0184909
0.0184818
0.0184814
0.0184741
0.0184754
0.0184758
0.0184646
0.0184346
0.0183745
0.0182665
0.0180814
0.017792
0.0173831
0.0168363
0.0161594
0.015389
0.0145796
0.0137983
0.0131237
0.0126232
0.0123612
0.0123595
0.0126009
0.0130355
0.013583
0.0141672
0.0147379
0.0152619
0.0157191
0.0161048
0.0164209
0.0166756
0.0168806
0.0170552
0.0172177
0.0173785
0.0175533
0.0177555
0.0179846
0.0182373
0.0185194
0.0188338
0.0191716
0.0195216
0.0198808
0.0202403
0.0205824
0.0209001
0.0211953
0.0214561
0.0216814
0.0218891
0.0220889
0.0222739
0.0224522
0.0226375
0.0228289
0.0230131
0.0231997
0.023398
0.0235884
0.0237651
0.0239457
0.0241158
0.0242673
0.0244129
0.0245484
0.0246664
0.0247712
0.0248639
0.024947
0.0250159
0.0250739
0.0251226
0.0251539
0.0251744
0.025187
0.0251819
0.0251713
0.0251578
0.0251265
0.0250865
0.0250511
0.0250084
0.0249527
0.0248976
0.0248424
0.0247701
0.024697
0.0246467
0.0246001
0.0245429
0.0245103
0.0245214
0.0245385
0.0245348
0.024543
0.0245867
0.0246293
0.0246327
0.024637
0.024733
0.0249351
0.0251405
0.0252839
0.0254554
0.0257473
0.0260364
0.0260864
0.025878
0.0256736
0.0256991
0.0258415
0.0257521
0.0252952
0.0248131
0.0248361
0.0254932
0.0262226
0.0261685
0.0250503
0.0236269
0.0232024
0.0245726
0.0271411
0.0288352
0.0274126
0.0224525
0.015772
0.00968352
0.00535397
0.00275022
0.00134051
0.000624452
0.000280594
0.000122721
5.23863e-05
2.06466e-05
8.04052e-06
4.91037e-06
9.15152e-07
2.83145e-06
1.70356e-06
1.61329e-06
1.94588e-06
6.60145e-07
1.36763e-06
4.62746e-07
6.16698e-07
4.06804e-07
1.80444e-07
2.01151e-07
4.29081e-08
8.32404e-08
3.68043e-08
2.03632e-08
1.01219e-08
5.72341e-09
7.55056e-09
4.81809e-09
3.08358e-09
2.38038e-09
2.12105e-09
1.73479e-09
1.27377e-09
8.99856e-10
6.47589e-10
4.8259e-10
3.43191e-10
2.26431e-10
1.41112e-10
9.01573e-11
6.41083e-11
4.39434e-11
1.90424e-11
6.56466e-12
8.92294e-12
1.19487e-11
7.88392e-12
4.16931e-12
4.09691e-12
3.62867e-12
4.31058e-12
2.32584e-12
1.82977e-12
1.57781e-12
1.77505e-12
1.71631e-12
1.2598e-12
1.15287e-12
1.40838e-12
1.25265e-12
9.47252e-13
1.07157e-12
1.06718e-12
9.33919e-13
8.99023e-13
8.71029e-13
7.92256e-13
7.9022e-13
7.14429e-13
6.92203e-13
6.55872e-13
5.89923e-13
5.61235e-13
5.48828e-13
4.65153e-13
4.50312e-13
4.15583e-13
3.63835e-13
3.38275e-13
3.12446e-13
2.63119e-13
2.46639e-13
2.23811e-13
1.95543e-13
1.66064e-13
1.5429e-13
1.28031e-13
1.19437e-13
9.33846e-14
8.52086e-14
6.48711e-14
6.70444e-14
5.21099e-14
4.17299e-14
3.68955e-14
2.96034e-14
3.24159e-14
1.69019e-14
1.36727e-14
1.74264e-14
7.48915e-15
1.06172e-14
1.28711e-15
8.77535e-15
2.82434e-15
2.98591e-15
2.3475e-15
1.49746e-15
1.5719e-15
0
0
0
0
0
0
0
0
0
0
0
0
0
0
0
0
0
0
0
0
0
0
0
0
0
0
0
0
0
0
0
0
0
0
0
0
0
0
0
0
0
0
0
0
0
0
0
0
0
0
0
0
0
0
0
0
0
0
0
0
0
0
0
0
0
0
0
0
0
0
0
0
0
0
0
0
0
0
0
0
0
0
0
0
0
0
0
0
0
0
0
0
0
0
0
0
0
0
0
0
0
0
0
0
0
0
0
0
0
0
0
0
0
0
0
0
0
0
0
0
0
0
0
0
0
0
0
0
0
0.04
0.0242209
0.0217168
0.0184467
0.0195574
0.0217702
0.0208015
0.0197507
0.0207611
0.0220027
0.0220415
0.0220059
0.0223901
0.022624
0.0226236
0.0225766
0.0227501
0.0226407
0.0227158
0.0226216
0.0227804
0.0226369
0.0227485
0.0226824
0.022786
0.0227188
0.0227969
0.0227883
0.0228388
0.0228393
0.0228874
0.0229073
0.0229359
0.0229569
0.0229824
0.0229902
0.0229819
0.0229455
0.0228647
0.0227153
0.022475
0.0221287
0.0216626
0.0210847
0.0204302
0.0197461
0.019092
0.0185161
0.0180593
0.0177543
0.017616
0.0176414
0.0178122
0.0180884
0.0184216
0.0187791
0.019145
0.0195056
0.0198509
0.0201749
0.0204698
0.0207306
0.0209551
0.0211528
0.0213364
0.0215088
0.0216862
0.0218867
0.0221074
0.0223485
0.0226178
0.0229097
0.023211
0.0235131
0.0238082
0.0240815
0.0243233
0.0245411
0.0247382
0.0249114
0.0250781
0.0252558
0.0254414
0.025633
0.0258396
0.026056
0.0262656
0.026465
0.0266608
0.0268418
0.026998
0.0271395
0.0272728
0.0273879
0.0274849
0.0275781
0.0276671
0.0277387
0.027799
0.0278582
0.0279022
0.0279252
0.0279444
0.0279551
0.0279424
0.0279153
0.0278829
0.0278381
0.0277709
0.02769
0.0276041
0.0274993
0.0273855
0.0272816
0.0271697
0.0270572
0.0269627
0.0268614
0.0267464
0.0266298
0.0264976
0.0263341
0.0261534
0.0260002
0.0258833
0.0257663
0.0256849
0.0257031
0.0257671
0.025787
0.025783
0.0258265
0.0259065
0.0259308
0.0258634
0.0258061
0.0258758
0.0260073
0.0259907
0.0257599
0.025526
0.0255043
0.0255991
0.0254821
0.02501
0.0244907
0.0244271
0.0249477
0.025549
0.0254834
0.0244752
0.0231381
0.0226529
0.0238432
0.0262628
0.0280054
0.0268658
0.0222506
0.0157839
0.00977231
0.00544586
0.00280845
0.00137515
0.000647883
0.000292587
0.000128669
5.55686e-05
2.32007e-05
9.14255e-06
4.10821e-06
2.72935e-06
3.25706e-07
2.12299e-06
1.04272e-06
1.49655e-06
1.06084e-06
8.61288e-07
7.58092e-07
3.28368e-07
3.98536e-07
1.64379e-07
1.44615e-07
9.96064e-08
4.51152e-08
3.94602e-08
7.5571e-09
1.26497e-08
7.57431e-09
5.40745e-09
3.04477e-09
2.20861e-09
2.22104e-09
1.93269e-09
1.51196e-09
1.12725e-09
8.42773e-10
6.33271e-10
4.62046e-10
3.28547e-10
2.20648e-10
1.4389e-10
9.9689e-11
6.34496e-11
2.81375e-11
1.4615e-11
1.71201e-11
1.26894e-11
3.34259e-12
5.57126e-12
1.83279e-12
5.18691e-12
1.94801e-12
3.03767e-12
1.17723e-12
1.53306e-12
1.1273e-12
1.02626e-12
9.36632e-13
8.57274e-13
7.06538e-13
7.23029e-13
6.22219e-13
5.12706e-13
5.29614e-13
5.18945e-13
3.99065e-13
3.78407e-13
3.5491e-13
3.23344e-13
2.96319e-13
2.71569e-13
2.43187e-13
2.51997e-13
2.0717e-13
1.98258e-13
2.12793e-13
1.73355e-13
1.47021e-13
1.77201e-13
1.27204e-13
1.26064e-13
1.27761e-13
9.42453e-14
1.00275e-13
9.98502e-14
7.08639e-14
8.10608e-14
6.33467e-14
5.97594e-14
6.05002e-14
3.66302e-14
4.28903e-14
3.45618e-14
2.77817e-14
3.53211e-14
1.69951e-14
2.28823e-14
2.10682e-14
1.71801e-14
1.36682e-14
8.76678e-15
1.00929e-14
8.28055e-15
4.18138e-15
3.18613e-15
5.72314e-15
3.12055e-15
2.54024e-15
2.32875e-15
1.51994e-15
1.54531e-15
0
0
0
0
0
0
0
0
0
0
0
0
0
0
0
0
0
0
0
0
0
0
0
0
0
0
0
0
0
0
0
0
0
0
0
0
0
0
0
0
0
0
0
0
0
0
0
0
0
0
0
0
0
0
0
0
0
0
0
0
0
0
0
0
0
0
0
0
0
0
0
0
0
0
0
0
0
0
0
0
0
0
0
0
0
0
0
0
0
0
0
0
0
0
0
0
0
0
0
0
0
0
0
0
0
0
0
0
0
0
0
0
0
0
0
0
0
0
0
0
0
0
0
0
0
0
0
0
0
0.04
0.0261605
0.0274522
0.0270437
0.0262658
0.0234319
0.0219062
0.0231537
0.0238642
0.0230757
0.0227497
0.0235299
0.0239714
0.0238422
0.0239359
0.0241658
0.024342
0.0242108
0.0244355
0.0244035
0.0245662
0.0244349
0.0246547
0.0245731
0.0246912
0.0246342
0.0247586
0.0247238
0.0247816
0.0247837
0.0248331
0.0248295
0.0248536
0.0248645
0.0248656
0.0248432
0.0248018
0.0247169
0.0245676
0.0243342
0.0239998
0.0235538
0.0229984
0.0223783
0.0217484
0.0211661
0.0206837
0.0203261
0.0200915
0.0199724
0.019939
0.0199669
0.0200322
0.020115
0.0202107
0.0203291
0.0204834
0.0206782
0.0209134
0.0211828
0.0214692
0.021756
0.0220325
0.0222885
0.0225227
0.0227426
0.0229541
0.0231656
0.0233842
0.0236164
0.0238668
0.0241252
0.0243815
0.0246313
0.0248578
0.0250483
0.0252141
0.0253597
0.0254841
0.0256076
0.0257547
0.0259226
0.0261084
0.026323
0.0265569
0.0267849
0.0270019
0.0272131
0.0274014
0.0275521
0.0276829
0.0278
0.0278865
0.0279573
0.0280276
0.0280867
0.0281331
0.0281749
0.0282135
0.0282415
0.0282527
0.0282589
0.0282533
0.0282241
0.0281898
0.0281486
0.0280849
0.0280145
0.0279348
0.0278338
0.0277196
0.0275931
0.027461
0.0273343
0.0272079
0.027089
0.0269832
0.0268754
0.0267537
0.0266158
0.0264604
0.0262719
0.0260438
0.0258258
0.0256592
0.0255258
0.0254476
0.0254905
0.0256273
0.0257439
0.0257987
0.0258446
0.0258821
0.0258213
0.0256396
0.025466
0.0254366
0.0254986
0.0254605
0.0252644
0.0251041
0.0251798
0.025381
0.0253427
0.0248895
0.0243404
0.0242417
0.0247748
0.0254514
0.0254786
0.0245329
0.0231915
0.0226189
0.0237126
0.0261522
0.0280669
0.0271474
0.0226645
0.0161812
0.0100503
0.00560783
0.00289661
0.00141277
0.000661071
0.000300075
0.000131207
5.44029e-05
2.28565e-05
9.24254e-06
3.91229e-06
2.09377e-06
1.97324e-06
3.14401e-07
2.55132e-06
9.6467e-07
1.51943e-06
1.1597e-06
4.50381e-07
7.50985e-07
2.14222e-07
2.95394e-07
1.78691e-07
7.84583e-08
8.30865e-08
1.72365e-08
2.82904e-08
1.09468e-08
7.09265e-09
3.37661e-09
2.02407e-09
2.47122e-09
2.06994e-09
1.63916e-09
1.33058e-09
1.06883e-09
8.22995e-10
6.06486e-10
4.54528e-10
3.31477e-10
2.30251e-10
1.55073e-10
9.48903e-11
4.87546e-11
3.12646e-11
2.72495e-11
1.51465e-11
2.91129e-12
9.09126e-12
1.28709e-12
7.33478e-12
2.49829e-12
3.69121e-12
1.80886e-12
1.23843e-12
8.01306e-13
3.22978e-13
3.28017e-13
1.02385e-13
1.14611e-13
1.48037e-13
1.65654e-13
1.889e-13
2.12854e-13
1.75436e-13
2.27416e-13
2.32779e-13
2.26991e-13
2.30438e-13
2.19559e-13
2.08083e-13
2.15525e-13
1.85667e-13
1.74351e-13
1.59293e-13
1.41139e-13
1.13249e-13
1.08709e-13
1.03774e-13
6.32171e-14
6.69827e-14
6.80728e-14
3.10399e-14
4.8987e-14
2.597e-14
7.2407e-15
2.96022e-14
6.16813e-15
2.38062e-15
7.87171e-15
1.53078e-14
7.29241e-15
4.45936e-15
1.29636e-14
9.2458e-16
1.38585e-14
7.26609e-15
5.08368e-15
1.62183e-14
7.59331e-15
7.33068e-15
7.4616e-15
4.68433e-15
6.68333e-15
2.36976e-15
1.43595e-15
5.48426e-15
1.68223e-15
2.51363e-15
2.30722e-15
1.51497e-15
1.51963e-15
0
0
0
0
0
0
0
0
0
0
0
0
0
0
0
0
0
0
0
0
0
0
0
0
0
0
0
0
0
0
0
0
0
0
0
0
0
0
0
0
0
0
0
0
0
0
0
0
0
0
0
0
0
0
0
0
0
0
0
0
0
0
0
0
0
0
0
0
0
0
0
0
0
0
0
0
0
0
0
0
0
0
0
0
0
0
0
0
0
0
0
0
0
0
0
0
0
0
0
0
0
0
0
0
0
0
0
0
0
0
0
0
0
0
0
0
0
0
0
0
0
0
0
0
0
0
0
0
0
0.04
0.0266619
0.0277742
0.026452
0.0256102
0.0254412
0.0261157
0.0252197
0.0236523
0.0237143
0.0245489
0.0244971
0.024071
0.0243053
0.0247683
0.0247396
0.0247674
0.0248282
0.0251022
0.0249441
0.0251424
0.0250772
0.0252734
0.0251271
0.0252977
0.0252407
0.0253336
0.0252739
0.0253554
0.0253359
0.0253602
0.0253504
0.0253702
0.0253506
0.0253265
0.0252806
0.0251975
0.0250509
0.0248268
0.0245057
0.0240677
0.0235217
0.0229109
0.0222989
0.0217503
0.0213331
0.02107
0.020953
0.0209455
0.0209936
0.0210436
0.0210563
0.0210139
0.0209295
0.0208331
0.0207639
0.0207468
0.020797
0.0209226
0.0211151
0.0213593
0.0216431
0.0219534
0.0222705
0.0225761
0.0228652
0.0231375
0.0233901
0.0236274
0.0238587
0.0240865
0.0243063
0.0245182
0.0247116
0.0248752
0.0250151
0.0251389
0.0252499
0.0253691
0.0255116
0.025679
0.0258748
0.0261015
0.0263492
0.0265968
0.0268334
0.0270591
0.0272601
0.0274269
0.0275718
0.0276992
0.0278034
0.0278845
0.0279573
0.0280252
0.0280787
0.0281239
0.028169
0.0282016
0.0282178
0.0282267
0.0282297
0.0282145
0.028181
0.0281447
0.0281041
0.0280412
0.0279658
0.0278991
0.0278217
0.0277122
0.0276003
0.0274966
0.0273697
0.027229
0.0271032
0.0269845
0.0268587
0.026726
0.0265943
0.0264515
0.0262741
0.0260793
0.0259024
0.0257518
0.0256387
0.0255835
0.0256119
0.0257325
0.0258752
0.0259588
0.0260037
0.0260273
0.0259322
0.0256644
0.0253595
0.0252048
0.0251989
0.0251674
0.0250281
0.024924
0.0250222
0.0252323
0.0252348
0.0248658
0.0243957
0.0243023
0.0247544
0.0253379
0.0253447
0.024465
0.0232177
0.0226708
0.0236679
0.0259709
0.027852
0.0270276
0.0226798
0.016289
0.0101704
0.0056902
0.00294913
0.00144585
0.000678018
0.000307743
0.000135585
5.82063e-05
2.3932e-05
9.64865e-06
3.39428e-06
2.43999e-06
2.24486e-06
1.95057e-06
1.05934e-06
2.36898e-06
4.88971e-07
1.37152e-06
7.09307e-07
4.61623e-07
4.84421e-07
1.03405e-07
2.12542e-07
7.87286e-08
6.1777e-08
4.3396e-08
1.40349e-08
1.54265e-08
1.4223e-09
4.24467e-09
2.97686e-09
2.57724e-09
1.99415e-09
1.67315e-09
1.44482e-09
1.1566e-09
8.71321e-10
6.6796e-10
5.08473e-10
3.71753e-10
2.5806e-10
1.61515e-10
9.21934e-11
6.53393e-11
4.97423e-11
2.45992e-11
7.14623e-12
9.15267e-12
5.49666e-12
8.45183e-12
4.06586e-12
6.48834e-12
1.83662e-12
3.42963e-12
4.23697e-13
1.34454e-12
3.47765e-13
4.44354e-13
1.04589e-13
2.59712e-13
2.5811e-13
1.96325e-13
2.15843e-13
2.58244e-13
2.38844e-13
2.37191e-13
2.68642e-13
2.47155e-13
2.56205e-13
2.32576e-13
2.30195e-13
2.38111e-13
1.95964e-13
1.85762e-13
1.87612e-13
1.40751e-13
1.33985e-13
1.28914e-13
1.01232e-13
8.17659e-14
7.9294e-14
7.36094e-14
4.48862e-14
4.88752e-14
4.06429e-14
1.58071e-14
3.16149e-14
1.08734e-14
1.77485e-15
1.31062e-14
4.97868e-15
4.79857e-15
3.30035e-15
9.83199e-15
9.7018e-16
6.60091e-15
1.07648e-14
1.62205e-15
1.34187e-14
9.32713e-15
4.2541e-15
8.1468e-15
3.75083e-15
6.42921e-15
2.59074e-15
7.72636e-16
5.36157e-15
1.41496e-15
2.39167e-15
2.21702e-15
1.41581e-15
1.47501e-15
0
0
0
0
0
0
0
0
0
0
0
0
0
0
0
0
0
0
0
0
0
0
0
0
0
0
0
0
0
0
0
0
0
0
0
0
0
0
0
0
0
0
0
0
0
0
0
0
0
0
0
0
0
0
0
0
0
0
0
0
0
0
0
0
0
0
0
0
0
0
0
0
0
0
0
0
0
0
0
0
0
0
0
0
0
0
0
0
0
0
0
0
0
0
0
0
0
0
0
0
0
0
0
0
0
0
0
0
0
0
0
0
0
0
0
0
0
0
0
0
0
0
0
0
0
0
0
0
0
0.04
0.0246266
0.0251176
0.026263
0.0269722
0.0266621
0.0259962
0.0250538
0.0251679
0.0254031
0.0247776
0.0242493
0.0246194
0.0249964
0.0248694
0.0247085
0.0250363
0.0250966
0.0251786
0.0250384
0.0253312
0.0252031
0.0253502
0.0252392
0.0254294
0.0253161
0.025407
0.0253682
0.0254392
0.0253918
0.025422
0.025414
0.0254134
0.0253755
0.0253428
0.0252662
0.0251319
0.0249241
0.0246203
0.0241962
0.0236563
0.0230418
0.0224172
0.0218617
0.0214493
0.0212296
0.021193
0.0213008
0.0214861
0.0216692
0.0217816
0.0217875
0.0216821
0.0214932
0.0212706
0.02106
0.0208978
0.0208135
0.0208204
0.0209216
0.0211139
0.0213875
0.0217197
0.0220821
0.0224523
0.0228049
0.0231248
0.0234131
0.0236761
0.023914
0.0241281
0.0243256
0.0245034
0.0246508
0.0247773
0.0248907
0.0249942
0.0251069
0.0252527
0.025429
0.025632
0.0258699
0.0261298
0.0263867
0.0266342
0.0268716
0.0270862
0.0272673
0.0274253
0.0275734
0.0276964
0.0277949
0.027894
0.0279846
0.0280481
0.0281069
0.0281683
0.0282077
0.0282324
0.0282624
0.0282785
0.0282684
0.0282556
0.0282398
0.0282001
0.0281525
0.0281092
0.0280469
0.0279749
0.027907
0.0278166
0.0277087
0.0276103
0.0275011
0.0273597
0.0272091
0.0270724
0.0269227
0.0267447
0.0265893
0.0264632
0.0263199
0.0261762
0.0260685
0.0259835
0.0259097
0.0258662
0.0258829
0.0259553
0.0260228
0.026038
0.0260166
0.025968
0.0258243
0.0255323
0.0251883
0.0249689
0.0249041
0.0248413
0.024692
0.024601
0.0247465
0.0250339
0.0251156
0.0247855
0.0242875
0.0241273
0.0245399
0.025161
0.0252703
0.0244669
0.0231936
0.0225417
0.0234437
0.0257507
0.0277739
0.0271722
0.022982
0.0166045
0.0104176
0.00584894
0.00302893
0.00148533
0.000699054
0.000315301
0.000137522
5.92435e-05
2.4273e-05
9.93584e-06
3.11743e-06
7.45233e-07
2.27026e-06
1.8516e-06
2.4382e-06
5.15653e-07
1.77523e-06
6.69861e-07
7.22277e-07
6.18354e-07
1.74218e-07
3.223e-07
1.19841e-07
1.0333e-07
7.22453e-08
2.5312e-08
2.52942e-08
3.9982e-09
7.66071e-09
4.6888e-09
3.29699e-09
2.18088e-09
2.02407e-09
1.91469e-09
1.6127e-09
1.24026e-09
9.70631e-10
7.5115e-10
5.72526e-10
4.15736e-10
2.77479e-10
1.76526e-10
1.2516e-10
8.56659e-11
4.38972e-11
2.15086e-11
1.61073e-11
1.03273e-11
9.039e-12
5.16807e-12
6.30335e-12
1.62988e-12
2.74191e-12
1.13838e-12
1.03246e-12
2.95647e-13
1.5721e-13
3.28907e-13
2.09364e-13
8.97692e-14
4.8896e-14
7.8838e-14
5.22114e-14
4.7538e-14
9.04376e-14
6.48095e-14
5.34912e-14
9.78291e-14
1.02095e-13
9.36944e-14
1.02959e-13
1.10817e-13
9.15533e-14
8.85541e-14
9.95539e-14
6.73828e-14
6.08067e-14
7.46903e-14
4.18402e-14
3.98e-14
4.20276e-14
2.79494e-14
2.32149e-14
2.1657e-14
1.44319e-14
7.86271e-15
9.98406e-15
2.42525e-15
5.88516e-15
5.22135e-15
5.52295e-15
7.6372e-15
5.3226e-15
7.60513e-15
8.83876e-15
5.04148e-15
1.15366e-14
4.73802e-15
1.09436e-14
1.08385e-14
3.89544e-15
8.41406e-15
4.37054e-15
5.6673e-15
2.93166e-15
8.72378e-16
5.17848e-15
1.28387e-15
2.29652e-15
2.00476e-15
1.37664e-15
1.4233e-15
0
0
0
0
0
0
0
0
0
0
0
0
0
0
0
0
0
0
0
0
0
0
0
0
0
0
0
0
0
0
0
0
0
0
0
0
0
0
0
0
0
0
0
0
0
0
0
0
0
0
0
0
0
0
0
0
0
0
0
0
0
0
0
0
0
0
0
0
0
0
0
0
0
0
0
0
0
0
0
0
0
0
0
0
0
0
0
0
0
0
0
0
0
0
0
0
0
0
0
0
0
0
0
0
0
0
0
0
0
0
0
0
0
0
0
0
0
0
0
0
0
0
0
0
0
0
0
0
0
0.04
0.024812
0.0255311
0.0258651
0.0259336
0.0258441
0.0258198
0.0259687
0.0259416
0.025072
0.0246589
0.0250763
0.025204
0.0247517
0.0247317
0.0250525
0.025221
0.0249436
0.0251341
0.0251607
0.0253389
0.0251149
0.0253504
0.0252653
0.025384
0.0252672
0.0254084
0.0253521
0.0253899
0.0253607
0.0254075
0.0253745
0.025361
0.0253288
0.0252727
0.0251484
0.0249643
0.0246859
0.0242821
0.0237538
0.0231375
0.022494
0.021903
0.0214623
0.0212351
0.0212251
0.0213966
0.0216824
0.0219864
0.0222254
0.0223417
0.0223187
0.0221695
0.0219358
0.0216642
0.0213912
0.0211583
0.0209959
0.0209199
0.0209439
0.0210766
0.0213073
0.0216061
0.0219495
0.0223156
0.0226753
0.0230158
0.0233369
0.0236343
0.0239014
0.0241392
0.0243413
0.024501
0.0246253
0.0247251
0.0248106
0.0249112
0.0250446
0.0252121
0.0254202
0.0256681
0.0259343
0.0262
0.0264578
0.0267019
0.0269176
0.0271029
0.0272733
0.0274272
0.0275612
0.0276841
0.0277969
0.0279022
0.0279944
0.02807
0.0281456
0.0282138
0.0282564
0.028295
0.0283322
0.0283492
0.0283521
0.0283506
0.0283381
0.0283113
0.0282738
0.0282347
0.0281822
0.0281126
0.0280422
0.0279602
0.0278466
0.0277244
0.0276057
0.0274583
0.0272812
0.0271205
0.0269713
0.0267931
0.0266266
0.0265257
0.0264508
0.0263621
0.0263045
0.0262964
0.0262662
0.0261951
0.0261556
0.0261487
0.0261002
0.0260022
0.0259021
0.0258043
0.0256463
0.0253718
0.0250376
0.0247871
0.0246656
0.0245681
0.024426
0.0243582
0.0245185
0.0248229
0.024945
0.0246697
0.0242101
0.0240533
0.0244417
0.0250368
0.025152
0.024391
0.0231466
0.0224721
0.0233218
0.0255942
0.027642
0.0271366
0.0230641
0.0167398
0.0105332
0.00592971
0.00307878
0.00150879
0.000708762
0.000322621
0.000142413
5.94478e-05
2.46766e-05
1.05198e-05
5.61764e-06
1.13531e-06
2.4745e-06
1.91574e-06
2.43085e-06
2.26965e-06
6.38183e-07
1.59382e-06
4.56441e-07
6.25364e-07
4.7701e-07
1.33941e-07
2.43798e-07
5.19491e-08
8.48555e-08
3.62774e-08
1.84893e-08
1.6169e-08
5.15393e-09
5.42102e-09
2.28973e-09
2.53996e-09
2.35593e-09
2.06203e-09
1.67874e-09
1.35349e-09
1.06519e-09
8.29287e-10
6.29296e-10
4.52408e-10
3.11923e-10
2.19743e-10
1.45405e-10
8.29066e-11
4.77829e-11
3.24156e-11
1.92279e-11
9.46134e-12
1.12792e-11
6.81266e-12
7.11156e-12
5.83255e-12
3.33987e-12
3.37717e-12
7.36614e-13
1.38646e-12
3.79536e-13
5.08822e-13
1.67034e-13
1.61412e-13
1.94675e-13
1.59874e-13
8.78646e-14
8.59073e-14
5.45755e-14
4.21414e-14
3.45359e-14
5.93814e-14
5.09361e-14
1.84032e-14
6.84436e-14
5.83071e-14
4.61365e-14
6.3415e-14
5.95807e-14
4.02085e-14
3.89857e-14
5.28467e-14
2.39652e-14
2.37968e-14
3.29389e-14
7.78368e-15
1.49123e-14
1.85719e-14
3.57466e-15
6.8742e-15
7.91005e-15
1.05812e-14
1.60048e-15
9.98566e-15
8.13992e-15
4.37218e-15
1.33818e-14
4.94871e-15
9.75476e-15
7.0213e-15
8.65184e-15
7.02764e-15
9.06884e-15
1.01276e-14
4.14524e-15
7.7603e-15
4.7371e-15
5.44778e-15
2.84962e-15
1.1278e-15
5.06043e-15
1.33393e-15
2.28658e-15
1.90922e-15
1.24163e-15
1.38182e-15
0
0
0
0
0
0
0
0
0
0
0
0
0
0
0
0
0
0
0
0
0
0
0
0
0
0
0
0
0
0
0
0
0
0
0
0
0
0
0
0
0
0
0
0
0
0
0
0
0
0
0
0
0
0
0
0
0
0
0
0
0
0
0
0
0
0
0
0
0
0
0
0
0
0
0
0
0
0
0
0
0
0
0
0
0
0
0
0
0
0
0
0
0
0
0
0
0
0
0
0
0
0
0
0
0
0
0
0
0
0
0
0
0
0
0
0
0
0
0
0
0
0
0
0
0
0
0
0
0
0.04
0.0254337
0.0259376
0.0255611
0.0258438
0.0260897
0.0260825
0.0258557
0.0255023
0.0253472
0.0255375
0.0252867
0.0248401
0.0248925
0.0252465
0.0251164
0.0249944
0.0250121
0.0253376
0.0251315
0.0252413
0.0251621
0.0254044
0.0252152
0.0253507
0.0252944
0.0254028
0.02531
0.0253808
0.0253649
0.0253801
0.0253391
0.0253371
0.0252815
0.0251795
0.0250136
0.024767
0.0243886
0.0238787
0.023266
0.0225963
0.0219586
0.0214614
0.0211865
0.0211543
0.0213394
0.0216755
0.022065
0.0224081
0.0226412
0.0227366
0.0226966
0.0225518
0.0223393
0.0220807
0.021808
0.0215516
0.0213371
0.0211961
0.0211528
0.0212133
0.0213647
0.0215927
0.0218741
0.0221778
0.0224968
0.0228355
0.0231783
0.0235071
0.0238176
0.024094
0.0243118
0.0244774
0.0246017
0.024696
0.0247871
0.0249053
0.0250615
0.0252579
0.0254953
0.0257585
0.0260195
0.0262723
0.0265127
0.0267262
0.0269115
0.0270834
0.0272483
0.027396
0.0275271
0.027661
0.0277903
0.0279003
0.0280015
0.0281065
0.0281968
0.0282663
0.028336
0.0284018
0.0284348
0.0284595
0.0284915
0.0284983
0.0284793
0.028469
0.0284494
0.0283969
0.0283334
0.0282747
0.028194
0.0280842
0.0279669
0.0278423
0.0276946
0.027531
0.0273651
0.0272013
0.0270513
0.0269108
0.026775
0.0266818
0.0266425
0.0266087
0.0265896
0.0266152
0.0266137
0.0265216
0.0263887
0.026258
0.0260927
0.0258754
0.0256712
0.0255282
0.0253718
0.025111
0.0248002
0.0245822
0.0244852
0.0243872
0.0242148
0.0240954
0.0242156
0.0245311
0.0247294
0.0245489
0.024118
0.0238998
0.0242144
0.024811
0.0249998
0.0243194
0.0230997
0.0223703
0.0231335
0.0253902
0.0275526
0.0272244
0.0232878
0.0170083
0.0107512
0.00606573
0.00315852
0.00155106
0.000728198
0.000330198
0.000145452
6.23301e-05
2.49994e-05
8.70323e-06
4.01646e-06
4.16901e-06
1.99587e-07
2.68347e-06
1.57909e-06
1.50162e-06
1.53613e-06
3.15597e-07
8.34846e-07
4.24744e-07
2.72811e-07
2.87952e-07
7.85557e-08
1.19311e-07
4.4832e-08
3.11258e-08
2.13263e-08
9.41193e-09
6.26488e-09
1.10161e-09
2.86081e-09
2.87352e-09
2.55376e-09
2.07214e-09
1.76804e-09
1.44065e-09
1.15773e-09
9.07185e-10
6.93109e-10
5.06206e-10
3.63547e-10
2.41045e-10
1.48223e-10
9.69133e-11
6.54536e-11
3.6192e-11
1.59617e-11
1.58426e-11
5.85579e-12
7.83052e-12
3.08243e-12
4.07472e-12
1.18553e-12
1.41889e-12
1.69883e-13
7.34164e-13
3.14149e-13
1.01128e-13
1.28094e-14
1.3887e-13
1.71846e-13
6.53911e-14
5.38384e-14
4.06872e-14
3.95119e-14
1.7712e-14
3.84728e-14
7.82416e-14
5.57397e-14
2.41319e-14
8.4546e-14
6.97401e-14
4.18362e-14
8.11472e-14
6.09179e-14
4.25816e-14
5.33652e-14
5.60885e-14
3.34776e-14
2.81226e-14
3.43578e-14
1.55463e-14
1.49933e-14
2.13214e-14
4.04526e-15
7.79169e-15
1.66409e-14
1.2199e-14
3.20546e-15
3.59483e-15
1.0513e-14
5.65591e-15
1.47126e-14
5.35101e-15
5.90031e-15
8.15775e-15
7.07583e-15
7.22885e-15
7.81362e-15
8.46796e-15
4.31684e-15
7.45009e-15
4.44822e-15
4.92843e-15
2.76243e-15
1.1872e-15
4.69056e-15
1.11151e-15
2.0825e-15
1.82493e-15
1.07019e-15
1.33099e-15
0
0
0
0
0
0
0
0
0
0
0
0
0
0
0
0
0
0
0
0
0
0
0
0
0
0
0
0
0
0
0
0
0
0
0
0
0
0
0
0
0
0
0
0
0
0
0
0
0
0
0
0
0
0
0
0
0
0
0
0
0
0
0
0
0
0
0
0
0
0
0
0
0
0
0
0
0
0
0
0
0
0
0
0
0
0
0
0
0
0
0
0
0
0
0
0
0
0
0
0
0
0
0
0
0
0
0
0
0
0
0
0
0
0
0
0
0
0
0
0
0
0
0
0
0
0
0
0
0
0.04
0.025402
0.0254715
0.0254269
0.0257484
0.0257045
0.0258243
0.0257065
0.0256004
0.0256475
0.0254503
0.025048
0.025128
0.0253183
0.0251515
0.0248948
0.0251693
0.0252307
0.0252358
0.025011
0.0253328
0.0252262
0.0253225
0.0251694
0.025393
0.0252861
0.0253466
0.0252986
0.0253897
0.0253319
0.0253387
0.0253202
0.0252977
0.0251941
0.0250615
0.0248451
0.0245006
0.0240156
0.0234147
0.0227297
0.022043
0.0214794
0.0211372
0.0210549
0.0212168
0.0215699
0.0220058
0.0224168
0.0227294
0.0229093
0.022958
0.0229067
0.0227894
0.0226223
0.0224196
0.0221988
0.0219732
0.0217676
0.0216148
0.0215376
0.0215328
0.021592
0.0217111
0.0218731
0.0220763
0.0223313
0.0226347
0.0229734
0.0233333
0.0236845
0.0239875
0.0242324
0.0244222
0.0245584
0.0246758
0.0248069
0.0249588
0.025148
0.0253799
0.0256293
0.0258779
0.0261196
0.0263474
0.0265484
0.0267252
0.0268979
0.0270648
0.0272119
0.0273578
0.0275092
0.0276502
0.0277794
0.027911
0.0280398
0.0281605
0.0282677
0.0283667
0.0284568
0.0285312
0.0285872
0.0286323
0.0286602
0.0286746
0.0286698
0.0286494
0.0286226
0.028574
0.0284964
0.0284164
0.0283198
0.0281857
0.0280441
0.027916
0.0277694
0.0276012
0.0274614
0.0273471
0.0272205
0.0271097
0.0270453
0.0270005
0.0269605
0.0269307
0.0269047
0.0268732
0.0268155
0.0266925
0.0265009
0.0262809
0.026026
0.0257078
0.0254023
0.0252097
0.0250752
0.0248794
0.0246333
0.024444
0.024339
0.0242188
0.024023
0.0238858
0.0240016
0.0243249
0.0245323
0.0243652
0.0239524
0.023743
0.0240573
0.024668
0.0248865
0.0242132
0.022968
0.0222068
0.0229487
0.0252085
0.0274337
0.0272296
0.0233967
0.0171497
0.0108765
0.00614681
0.00319736
0.00157087
0.000740521
0.000335187
0.000145588
6.35312e-05
2.72293e-05
1.06102e-05
1.85404e-06
7.18433e-07
4.38977e-06
1.9683e-07
3.0009e-06
1.63384e-06
1.1459e-06
1.44797e-06
2.27233e-07
7.19544e-07
3.95375e-07
2.07384e-07
2.48675e-07
3.46436e-08
9.71756e-08
2.72742e-08
2.7137e-08
1.34431e-08
4.45324e-09
5.42987e-09
3.09476e-09
2.87045e-09
2.40778e-09
2.20671e-09
1.87195e-09
1.53639e-09
1.24361e-09
9.91855e-10
7.6692e-10
5.70695e-10
3.92432e-10
2.59871e-10
1.76665e-10
1.17473e-10
6.74137e-11
3.6292e-11
2.41792e-11
1.0043e-11
1.26167e-11
3.93384e-12
8.50385e-12
4.07412e-12
3.37492e-12
3.07003e-12
9.97945e-13
1.42124e-12
3.10701e-13
4.86443e-13
2.18104e-13
1.8699e-13
4.90092e-14
9.03411e-14
6.03427e-14
6.76806e-14
6.9169e-14
6.3417e-14
6.32163e-14
8.76992e-14
6.26754e-14
5.43013e-14
9.05521e-14
7.55278e-14
4.95983e-14
8.99381e-14
6.35576e-14
4.46664e-14
7.14775e-14
5.50918e-14
3.76173e-14
4.26916e-14
2.9746e-14
2.32735e-14
2.10757e-14
1.56226e-14
1.17781e-14
8.41966e-15
1.65145e-14
4.75579e-15
3.07882e-15
3.94693e-15
9.42217e-15
5.86154e-15
1.206e-14
6.8377e-15
3.63272e-15
8.0439e-15
6.71324e-15
6.3129e-15
6.77723e-15
7.13572e-15
4.28068e-15
7.2091e-15
4.14744e-15
4.74471e-15
2.85189e-15
1.32653e-15
4.39032e-15
9.09346e-16
1.89939e-15
1.68281e-15
1.02024e-15
1.26295e-15
0
0
0
0
0
0
0
0
0
0
0
0
0
0
0
0
0
0
0
0
0
0
0
0
0
0
0
0
0
0
0
0
0
0
0
0
0
0
0
0
0
0
0
0
0
0
0
0
0
0
0
0
0
0
0
0
0
0
0
0
0
0
0
0
0
0
0
0
0
0
0
0
0
0
0
0
0
0
0
0
0
0
0
0
0
0
0
0
0
0
0
0
0
0
0
0
0
0
0
0
0
0
0
0
0
0
0
0
0
0
0
0
0
0
0
0
0
0
0
0
0
0
0
0
0
0
0
0
0
0.04
0.0247382
0.0248952
0.0255674
0.0257543
0.0255702
0.0257035
0.0257263
0.0257477
0.0255346
0.0253144
0.0253735
0.0254315
0.0251376
0.0250473
0.0252099
0.0253511
0.0250523
0.0251809
0.0252023
0.0253885
0.025109
0.0253188
0.0252588
0.025384
0.025225
0.0253633
0.0253269
0.0253565
0.0252999
0.0253423
0.0252943
0.0252242
0.0251049
0.0249302
0.0246157
0.0241668
0.0235887
0.0228991
0.0221701
0.021536
0.0211116
0.0209494
0.0210627
0.0214024
0.0218607
0.0223158
0.0226847
0.0229231
0.0230321
0.023047
0.0230126
0.0229462
0.0228498
0.0227293
0.0225802
0.0224124
0.0222534
0.0221172
0.0220068
0.0219309