# vtk DataFile Version 3.0
LBM output step 120
ASCII
DATASET STRUCTURED_POINTS
DIMENSIONS 400 100 1
ORIGIN 0 0 0
SPACING 1 1 1
POINT_DATA 40000
SCALARS velocity_magnitude double 1
LOOKUP_TABLE default
0
0
0
0
0
0
0
0
0
0
0
0
0
0
0
0
0
0
0
0
0
0
0
0
0
0
0
0
0
0
0
0
0
0
0
0
0
0
0
0
0
0
0
0
0
0
0
0
0
0
0
0
0
0
0
0
0
0
0
0
0
0
0
0
0
0
0
0
0
0
0
0
0
0
0
0
0
0
0
0
0
0
0
0
0
0
0
0
0
0
0
0
0
0
0
0
0
0
0
0
0
0
0
0
0
0
0
0
0
0
0
0
0
0
0
0
0
0
0
0
0
0
0
0
0
0
0
0
0
0
0
0
0
0
0
0
0
0
0
0
0
0
0
0
0
0
0
0
0
0
0
0
0
0
0
0
0
0
0
0
0
0
0
0
0
0
0
0
0
0
0
0
0
0
0
0
0
0
0
0
0
0
0
0
0
0
0
0
0
0
0
0
0
0
0
0
0
0
0
0
0
0
0
0
0
0
0
0
0
0
0
0
0
0
0
0
0
0
0
0
0
0
0
0
0
0
0
0
0
0
0
0
0
0
0
0
0
0
0
0
0
0
0
0
0
0
0
0
0
0
0
0
0
0
0
0
0
0
0
0
0
0
0
0
0
0
0
0
0
0
0
0
0
0
0
0
0
0
0
0
0
0
0
0
0
0
0
0
0
0
0
0
0
0
0
0
0
0
0
0
0
0
0
0
0
0
0
0
0
0
0
0
0
0
0
0
0
0
0
0
0
0
0
0
0
0
0
0
0
0
0
0
0
0
0
0
0
0
0
0
0
0
0
0
0
0
0
0
0
0
0
0
0
0
0
0
0
0
0
0
0
0
0
0
0
0
0
0
0
0
0
0
0
0
0
0
0
0
0
0
0
0
0
0
0
0
0
0
0
0
0
0
0
0
0
0
0
0
0
0
0.04
0.0154044
0.0101724
0.0181318
0.0204752
0.0203149
0.0181213
0.0181775
0.018443
0.0183153
0.0177805
0.01746
0.017026
0.0166293
0.0163062
0.016085
0.0157508
0.0154853
0.0152696
0.0151086
0.0149067
0.0147959
0.0146993
0.0146485
0.0146027
0.0146172
0.0146541
0.0146947
0.0147602
0.0148545
0.014927
0.0150389
0.015133
0.0152433
0.0153769
0.0154803
0.0156058
0.0157529
0.0158581
0.0160161
0.0161768
0.0162731
0.0164489
0.0166638
0.0167573
0.0169045
0.0171534
0.0173017
0.0174455
0.0177226
0.0179006
0.0179816
0.0183008
0.0186863
0.0187045
0.0187026
0.0192648
0.0199278
0.0198328
0.0193901
0.0198506
0.0212266
0.0219408
0.0210051
0.0196623
0.0201508
0.0230097
0.0259615
0.0257233
0.021181
0.0143769
0.00821728
0.00409252
0.00183317
0.000754512
0.00028928
0.000104117
3.55372e-05
1.15935e-05
3.80491e-06
1.28669e-06
4.70377e-07
2.03383e-07
1.40065e-07
7.36251e-08
4.26738e-08
7.98503e-08
9.71505e-08
6.92161e-08
7.93574e-08
8.84303e-08
7.84117e-08
6.83443e-08
7.35724e-08
7.37715e-08
4.81275e-08
5.00998e-08
5.48724e-08
3.54501e-08
3.20975e-08
2.74597e-08
2.8043e-08
1.74084e-08
1.12513e-08
1.68435e-08
7.63839e-09
4.54653e-09
6.79635e-09
2.99753e-09
2.50542e-09
4.5786e-10
3.21298e-09
1.80837e-09
6.86624e-10
1.14271e-09
1.76166e-09
3.97485e-10
5.42757e-10
1.89215e-09
9.65021e-10
8.63541e-10
0
0
0
0
0
0
0
0
0
0
0
0
0
0
0
0
0
0
0
0
0
0
0
0
0
0
0
0
0
0
0
0
0
0
0
0
0
0
0
0
0
0
0
0
0
0
0
0
0
0
0
0
0
0
0
0
0
0
0
0
0
0
0
0
0
0
0
0
0
0
0
0
0
0
0
0
0
0
0
0
0
0
0
0
0
0
0
0
0
0
0
0
0
0
0
0
0
0
0
0
0
0
0
0
0
0
0
0
0
0
0
0
0
0
0
0
0
0
0
0
0
0
0
0
0
0
0
0
0
0
0
0
0
0
0
0
0
0
0
0
0
0
0
0
0
0
0
0
0
0
0
0
0
0
0
0
0
0
0
0
0
0
0
0
0
0
0
0
0
0
0
0
0
0
0
0
0
0
0
0
0
0
0
0
0
0
0
0
0
0
0
0
0
0
0
0
0
0
0
0
0
0
0
0
0
0
0
0
0
0
0
0
0
0
0
0
0
0
0
0
0
0
0
0
0
0
0
0
0
0
0
0
0
0
0
0
0
0
0
0
0
0
0
0
0
0
0
0
0
0
0
0
0
0
0
0
0
0
0
0
0
0
0
0
0
0
0
0
0
0
0
0
0
0
0
0
0
0
0
0.04
0.0219354
0.0214213
0.0196537
0.014532
0.0170038
0.0216056
0.0225958
0.0216022
0.0213847
0.0221175
0.022149
0.0221131
0.0221505
0.02227
0.0222097
0.0222745
0.0224037
0.0224636
0.0225056
0.0226166
0.022766
0.0228558
0.0229644
0.0230801
0.0231728
0.0232465
0.0233171
0.0234056
0.0234783
0.0235339
0.0236281
0.0236987
0.0237657
0.0238582
0.0239232
0.024008
0.0241007
0.0241545
0.0242577
0.0243566
0.0243842
0.0244887
0.0246196
0.024634
0.0247058
0.0248657
0.0248882
0.0249027
0.0250854
0.0251585
0.0250699
0.0252088
0.0254671
0.0253598
0.0251375
0.0254147
0.0258536
0.0256085
0.02496
0.0250846
0.026066
0.0264406
0.0252213
0.0235486
0.0235942
0.0259413
0.0283904
0.0276592
0.0225935
0.0152699
0.00869303
0.00430803
0.00191703
0.000781837
0.000295194
0.000103588
3.36703e-05
9.9999e-06
2.65597e-06
5.71625e-07
1.49002e-07
1.37896e-07
1.93633e-07
1.21204e-07
1.08696e-07
1.06525e-07
1.14016e-07
6.75411e-08
9.40731e-08
1.0314e-07
7.33503e-08
6.15219e-08
7.71453e-08
8.77138e-08
5.64798e-08
4.95973e-08
6.98777e-08
5.31386e-08
3.89961e-08
4.27304e-08
4.10554e-08
3.20001e-08
2.51816e-08
2.7327e-08
2.61101e-08
1.31316e-08
1.96631e-08
1.4561e-08
8.74437e-09
1.09695e-08
6.3212e-09
5.6403e-09
4.16539e-09
3.43189e-09
3.20278e-09
1.59437e-09
2.40715e-09
8.0176e-10
1.00564e-09
8.32936e-10
0
0
0
0
0
0
0
0
0
0
0
0
0
0
0
0
0
0
0
0
0
0
0
0
0
0
0
0
0
0
0
0
0
0
0
0
0
0
0
0
0
0
0
0
0
0
0
0
0
0
0
0
0
0
0
0
0
0
0
0
0
0
0
0
0
0
0
0
0
0
0
0
0
0
0
0
0
0
0
0
0
0
0
0
0
0
0
0
0
0
0
0
0
0
0
0
0
0
0
0
0
0
0
0
0
0
0
0
0
0
0
0
0
0
0
0
0
0
0
0
0
0
0
0
0
0
0
0
0
0
0
0
0
0
0
0
0
0
0
0
0
0
0
0
0
0
0
0
0
0
0
0
0
0
0
0
0
0
0
0
0
0
0
0
0
0
0
0
0
0
0
0
0
0
0
0
0
0
0
0
0
0
0
0
0
0
0
0
0
0
0
0
0
0
0
0
0
0
0
0
0
0
0
0
0
0
0
0
0
0
0
0
0
0
0
0
0
0
0
0
0
0
0
0
0
0
0
0
0
0
0
0
0
0
0
0
0
0
0
0
0
0
0
0
0
0
0
0
0
0
0
0
0
0
0
0
0
0
0
0
0
0
0
0
0
0
0
0
0
0
0
0
0
0
0
0
0
0
0
0.04
0.024445
0.0216297
0.0186167
0.0199717
0.0228942
0.0223648
0.0216122
0.0230224
0.0239117
0.0240138
0.0237096
0.0242679
0.0244749
0.024577
0.0246289
0.0248611
0.0249319
0.0249704
0.0250719
0.0251703
0.0252219
0.0252587
0.0253305
0.0253546
0.02535
0.0253703
0.0253809
0.0253808
0.02538
0.0253754
0.0253959
0.0253806
0.0253749
0.0253987
0.0253774
0.0253803
0.0254054
0.0253686
0.0253742
0.0254047
0.0253567
0.025355
0.0253936
0.0253352
0.0253267
0.0253907
0.0253112
0.0252335
0.0253476
0.0253516
0.0251529
0.0251789
0.0253862
0.0252394
0.0249001
0.0250359
0.0254395
0.0252444
0.0245553
0.0244881
0.0253183
0.0257549
0.0247119
0.0230849
0.0229561
0.0250921
0.0275502
0.0271059
0.0224122
0.0153247
0.00881076
0.00440327
0.00197586
0.000814195
0.000312227
0.000112346
3.82733e-05
1.25381e-05
3.98194e-06
1.30165e-06
5.02869e-07
3.01586e-07
1.52657e-07
8.93248e-08
5.79082e-08
7.36295e-08
6.82076e-08
3.08587e-08
1.30902e-08
3.16827e-08
2.01383e-08
1.70154e-08
1.53063e-08
2.45585e-08
1.50159e-08
9.33081e-09
2.45888e-08
1.48858e-08
1.17287e-08
1.41042e-08
1.13426e-08
1.61884e-08
7.51058e-09
9.62874e-09
1.58965e-08
5.66455e-09
8.48619e-09
1.09586e-08
5.063e-09
5.16295e-09
5.88997e-09
3.0011e-09
2.0442e-09
3.71068e-09
1.55133e-09
1.64512e-09
2.07366e-09
7.66167e-10
9.75616e-10
7.96537e-10
0
0
0
0
0
0
0
0
0
0
0
0
0
0
0
0
0
0
0
0
0
0
0
0
0
0
0
0
0
0
0
0
0
0
0
0
0
0
0
0
0
0
0
0
0
0
0
0
0
0
0
0
0
0
0
0
0
0
0
0
0
0
0
0
0
0
0
0
0
0
0
0
0
0
0
0
0
0
0
0
0
0
0
0
0
0
0
0
0
0
0
0
0
0
0
0
0
0
0
0
0
0
0
0
0
0
0
0
0
0
0
0
0
0
0
0
0
0
0
0
0
0
0
0
0
0
0
0
0
0
0
0
0
0
0
0
0
0
0
0
0
0
0
0
0
0
0
0
0
0
0
0
0
0
0
0
0
0
0
0
0
0
0
0
0
0
0
0
0
0
0
0
0
0
0
0
0
0
0
0
0
0
0
0
0
0
0
0
0
0
0
0
0
0
0
0
0
0
0
0
0
0
0
0
0
0
0
0
0
0
0
0
0
0
0
0
0
0
0
0
0
0
0
0
0
0
0
0
0
0
0
0
0
0
0
0
0
0
0
0
0
0
0
0
0
0
0
0
0
0
0
0
0
0
0
0
0
0
0
0
0
0
0
0
0
0
0
0
0
0
0
0
0
0
0
0
0
0
0
0.04
0.026441
0.0278474
0.0270362
0.0258387
0.0230914
0.0220674
0.0237265
0.0248517
0.0238836
0.0239233
0.0244963
0.0250428
0.0247233
0.0248616
0.0250835
0.0251858
0.0251198
0.0252161
0.0253136
0.025291
0.0252899
0.0253278
0.0253489
0.0253148
0.0253171
0.0253379
0.0253158
0.0252952
0.0252966
0.0252739
0.0252681
0.0252459
0.0252383
0.0252406
0.025204
0.0252035
0.0252172
0.0251588
0.0251571
0.02519
0.0251458
0.0251427
0.0251656
0.0250904
0.0250938
0.0251785
0.0250868
0.0249972
0.0251562
0.0251973
0.0249537
0.0249287
0.0251887
0.0251452
0.024829
0.0249122
0.0253004
0.0251487
0.02449
0.0244228
0.0252878
0.0258169
0.0248365
0.0231469
0.0228759
0.0249655
0.0275845
0.0274024
0.0228632
0.0157402
0.00908738
0.00454823
0.00203875
0.000836874
0.000318406
0.000112607
3.69684e-05
1.12215e-05
3.11988e-06
6.80888e-07
2.00932e-07
1.88465e-08
3.95132e-08
9.15191e-08
3.02718e-08
1.87185e-08
3.12883e-08
6.25011e-08
4.34354e-08
2.52362e-08
2.90232e-08
4.61987e-08
3.63935e-08
2.53278e-08
2.69216e-08
2.44705e-08
1.31255e-08
1.7645e-08
1.36571e-08
7.2778e-09
8.6389e-09
3.55386e-09
4.44113e-09
1.04178e-09
2.1187e-09
2.45932e-09
2.93626e-09
3.00924e-09
4.73691e-09
1.26116e-09
2.94214e-09
2.92479e-09
2.22728e-10
3.01273e-09
1.21524e-09
8.7712e-10
1.92226e-09
6.86648e-10
9.2771e-10
7.54772e-10
0
0
0
0
0
0
0
0
0
0
0
0
0
0
0
0
0
0
0
0
0
0
0
0
0
0
0
0
0
0
0
0
0
0
0
0
0
0
0
0
0
0
0
0
0
0
0
0
0
0
0
0
0
0
0
0
0
0
0
0
0
0
0
0
0
0
0
0
0
0
0
0
0
0
0
0
0
0
0
0
0
0
0
0
0
0
0
0
0
0
0
0
0
0
0
0
0
0
0
0
0
0
0
0
0
0
0
0
0
0
0
0
0
0
0
0
0
0
0
0
0
0
0
0
0
0
0
0
0
0
0
0
0
0
0
0
0
0
0
0
0
0
0
0
0
0
0
0
0
0
0
0
0
0
0
0
0
0
0
0
0
0
0
0
0
0
0
0
0
0
0
0
0
0
0
0
0
0
0
0
0
0
0
0
0
0
0
0
0
0
0
0
0
0
0
0
0
0
0
0
0
0
0
0
0
0
0
0
0
0
0
0
0
0
0
0
0
0
0
0
0
0
0
0
0
0
0
0
0
0
0
0
0
0
0
0
0
0
0
0
0
0
0
0
0
0
0
0
0
0
0
0
0
0
0
0
0
0
0
0
0
0
0
0
0
0
0
0
0
0
0
0
0
0
0
0
0
0
0
0.04
0.0265306
0.0275159
0.0259777
0.024957
0.0244714
0.0251727
0.0244216
0.023549
0.0237712
0.0250072
0.0246923
0.0244513
0.0245746
0.0250753
0.0249638
0.0249063
0.0250385
0.025159
0.0251123
0.0251183
0.0252127
0.0252228
0.0252121
0.0252339
0.0252596
0.0252451
0.0252249
0.0252383
0.02524
0.0252059
0.0252193
0.0252123
0.0251938
0.025195
0.0251701
0.0251767
0.0252026
0.0251547
0.0251531
0.0251845
0.0251401
0.0251423
0.0251756
0.0251102
0.0251301
0.0252283
0.0251188
0.0249996
0.0251699
0.0252509
0.0250183
0.0249817
0.0252524
0.0252114
0.0248396
0.0248723
0.0253127
0.0252744
0.0246352
0.0244383
0.0251693
0.0257154
0.0248696
0.0232583
0.022903
0.0248272
0.0273716
0.0272774
0.0228914
0.0158554
0.0092001
0.00462312
0.00208043
0.000858293
0.000329005
0.000118108
4.00601e-05
1.2878e-05
4.05983e-06
1.35402e-06
4.37387e-07
1.41539e-07
1.33265e-07
8.1261e-08
1.02858e-08
2.44612e-08
7.9508e-08
3.99942e-08
2.30112e-08
2.35762e-08
4.24583e-08
5.68004e-08
2.74767e-08
1.95038e-08
3.2877e-08
2.67675e-08
1.83488e-08
1.35424e-08
1.57378e-08
1.35072e-08
4.94473e-09
6.21518e-09
8.58229e-09
2.34277e-09
1.91243e-09
2.5528e-09
5.15626e-09
8.92775e-10
3.85395e-09
1.8813e-09
1.44237e-09
3.04317e-09
3.42895e-10
2.41377e-09
1.0336e-09
7.90707e-10
1.74972e-09
5.87088e-10
8.63464e-10
7.0813e-10
0
0
0
0
0
0
0
0
0
0
0
0
0
0
0
0
0
0
0
0
0
0
0
0
0
0
0
0
0
0
0
0
0
0
0
0
0
0
0
0
0
0
0
0
0
0
0
0
0
0
0
0
0
0
0
0
0
0
0
0
0
0
0
0
0
0
0
0
0
0
0
0
0
0
0
0
0
0
0
0
0
0
0
0
0
0
0
0
0
0
0
0
0
0
0
0
0
0
0
0
0
0
0
0
0
0
0
0
0
0
0
0
0
0
0
0
0
0
0
0
0
0
0
0
0
0
0
0
0
0
0
0
0
0
0
0
0
0
0
0
0
0
0
0
0
0
0
0
0
0
0
0
0
0
0
0
0
0
0
0
0
0
0
0
0
0
0
0
0
0
0
0
0
0
0
0
0
0
0
0
0
0
0
0
0
0
0
0
0
0
0
0
0
0
0
0
0
0
0
0
0
0
0
0
0
0
0
0
0
0
0
0
0
0
0
0
0
0
0
0
0
0
0
0
0
0
0
0
0
0
0
0
0
0
0
0
0
0
0
0
0
0
0
0
0
0
0
0
0
0
0
0
0
0
0
0
0
0
0
0
0
0
0
0
0
0
0
0
0
0
0
0
0
0
0
0
0
0
0
0.04
0.0245053
0.0248466
0.025753
0.026175
0.0255708
0.0248744
0.0239157
0.0245945
0.0248954
0.0247379
0.0241509
0.0248135
0.0250378
0.0249339
0.0247524
0.025049
0.025158
0.0250754
0.0250768
0.0251953
0.0252192
0.0251694
0.0252071
0.0252436
0.0252232
0.0252144
0.0252302
0.0252378
0.0252185
0.0251987
0.0252226
0.0252047
0.0251893
0.0252071
0.0251791
0.0251724
0.0251968
0.025155
0.0251509
0.0251767
0.02514
0.0251544
0.025175
0.0250818
0.0250983
0.0252195
0.0251148
0.0249783
0.025149
0.0252395
0.0249862
0.0249174
0.0251952
0.0251872
0.0248227
0.0248397
0.0252735
0.0252235
0.0245445
0.0243238
0.0251062
0.0257504
0.0249395
0.0232355
0.0227344
0.024614
0.0272986
0.0274441
0.0232234
0.0161937
0.00944129
0.00475797
0.00214386
0.000883959
0.000337688
0.000120255
4.00287e-05
1.23098e-05
3.42432e-06
8.64436e-07
2.12925e-07
5.49786e-08
1.77411e-07
1.14062e-08
3.36116e-08
7.51492e-08
2.11732e-08
3.32117e-08
1.37525e-08
3.9757e-08
2.84181e-08
2.20124e-08
1.38264e-08
1.94629e-08
2.8434e-08
1.28418e-08
1.33548e-08
9.60749e-09
7.71928e-09
1.26234e-08
2.15628e-09
1.08363e-09
8.32676e-09
2.5937e-09
2.17507e-09
2.99502e-09
5.2334e-09
1.3287e-09
2.93913e-09
2.11667e-09
1.44208e-09
2.81172e-09
3.272e-10
2.28797e-09
8.68744e-10
6.90925e-10
1.56045e-09
4.70553e-10
7.84702e-10
6.5715e-10
0
0
0
0
0
0
0
0
0
0
0
0
0
0
0
0
0
0
0
0
0
0
0
0
0
0
0
0
0
0
0
0
0
0
0
0
0
0
0
0
0
0
0
0
0
0
0
0
0
0
0
0
0
0
0
0
0
0
0
0
0
0
0
0
0
0
0
0
0
0
0
0
0
0
0
0
0
0
0
0
0
0
0
0
0
0
0
0
0
0
0
0
0
0
0
0
0
0
0
0
0
0
0
0
0
0
0
0
0
0
0
0
0
0
0
0
0
0
0
0
0
0
0
0
0
0
0
0
0
0
0
0
0
0
0
0
0
0
0
0
0
0
0
0
0
0
0
0
0
0
0
0
0
0
0
0
0
0
0
0
0
0
0
0
0
0
0
0
0
0
0
0
0
0
0
0
0
0
0
0
0
0
0
0
0
0
0
0
0
0
0
0
0
0
0
0
0
0
0
0
0
0
0
0
0
0
0
0
0
0
0
0
0
0
0
0
0
0
0
0
0
0
0
0
0
0
0
0
0
0
0
0
0
0
0
0
0
0
0
0
0
0
0
0
0
0
0
0
0
0
0
0
0
0
0
0
0
0
0
0
0
0
0
0
0
0
0
0
0
0
0
0
0
0
0
0
0
0
0
0.04
0.0248894
0.0256071
0.0257001
0.0253748
0.0250284
0.0249257
0.0249106
0.0251943
0.0243001
0.0244321
0.024804
0.0251735
0.0246126
0.0247306
0.0250454
0.025143
0.0249258
0.0250068
0.025179
0.0251635
0.0251031
0.0251638
0.0252303
0.0251942
0.0251809
0.0252291
0.0252244
0.0252007
0.0252095
0.0252098
0.0252091
0.0251831
0.0251872
0.0252107
0.0251678
0.0251603
0.0251959
0.0251543
0.0251463
0.0251741
0.0251328
0.025148
0.0251833
0.0250876
0.0250837
0.025208
0.0251289
0.0249986
0.0251502
0.0252264
0.0249738
0.0249208
0.0252258
0.0252236
0.02482
0.0248003
0.0252551
0.0252581
0.0245889
0.0243213
0.0250671
0.0257288
0.0249544
0.0232444
0.0226819
0.0244999
0.027196
0.0274379
0.0233226
0.0163288
0.00954696
0.00481905
0.00217317
0.00089686
0.000343685
0.00012309
4.12804e-05
1.31793e-05
4.14095e-06
1.18453e-06
3.70962e-07
2.99028e-07
7.27841e-08
6.05561e-08
7.1469e-08
8.06819e-08
5.20563e-08
2.28117e-08
6.70043e-08
5.81992e-09
1.69712e-08
1.40155e-08
2.01755e-08
2.36219e-08
1.79404e-08
9.38878e-09
1.06011e-08
1.07704e-08
9.25377e-09
6.43117e-09
2.3727e-09
3.20504e-09
4.6064e-09
1.59275e-09
2.25771e-09
1.34467e-09
3.19836e-09
1.46529e-09
2.9089e-09
1.40974e-09
1.53385e-09
2.67905e-09
3.67757e-10
2.18417e-09
7.09099e-10
5.82891e-10
1.35914e-09
3.40676e-10
6.93486e-10
6.02414e-10
0
0
0
0
0
0
0
0
0
0
0
0
0
0
0
0
0
0
0
0
0
0
0
0
0
0
0
0
0
0
0
0
0
0
0
0
0
0
0
0
0
0
0
0
0
0
0
0
0
0
0
0
0
0
0
0
0
0
0
0
0
0
0
0
0
0
0
0
0
0
0
0
0
0
0
0
0
0
0
0
0
0
0
0
0
0
0
0
0
0
0
0
0
0
0
0
0
0
0
0
0
0
0
0
0
0
0
0
0
0
0
0
0
0
0
0
0
0
0
0
0
0
0
0
0
0
0
0
0
0
0
0
0
0
0
0
0
0
0
0
0
0
0
0
0
0
0
0
0
0
0
0
0
0
0
0
0
0
0
0
0
0
0
0
0
0
0
0
0
0
0
0
0
0
0
0
0
0
0
0
0
0
0
0
0
0
0
0
0
0
0
0
0
0
0
0
0
0
0
0
0
0
0
0
0
0
0
0
0
0
0
0
0
0
0
0
0
0
0
0
0
0
0
0
0
0
0
0
0
0
0
0
0
0
0
0
0
0
0
0
0
0
0
0
0
0
0
0
0
0
0
0
0
0
0
0
0
0
0
0
0
0
0
0
0
0
0
0
0
0
0
0
0
0
0
0
0
0
0
0.04
0.0254672
0.0259292
0.0254305
0.025521
0.0255215
0.0253776
0.0249598
0.0248462
0.0245904
0.0252151
0.0248628
0.0247244
0.0247312
0.0252002
0.0250301
0.0248883
0.025007
0.0252062
0.0251213
0.0250555
0.0251588
0.0252137
0.0251669
0.0251586
0.0252093
0.0252157
0.0251709
0.0251873
0.025215
0.0251885
0.0251881
0.0251825
0.0251772
0.0251853
0.0251548
0.025158
0.0251835
0.0251446
0.0251511
0.0251631
0.0250948
0.0251225
0.0251895
0.0250947
0.0250693
0.0251856
0.0251048
0.0249658
0.0251205
0.025215
0.0249731
0.0249132
0.0251973
0.0251628
0.0247453
0.0247655
0.025283
0.0252864
0.0245338
0.0241936
0.0249724
0.0257432
0.0250312
0.023262
0.0225777
0.0243434
0.0271339
0.0275605
0.0235837
0.0166046
0.0097499
0.0049365
0.00223093
0.000922209
0.000353514
0.000126272
4.21794e-05
1.31866e-05
3.85964e-06
1.02219e-06
2.61716e-07
1.30991e-07
7.89463e-08
3.16598e-08
1.38338e-07
2.88429e-08
5.27388e-08
8.48871e-08
1.6374e-08
4.74317e-08
1.06833e-08
4.12094e-08
2.53494e-08
8.13169e-09
1.11597e-08
1.90442e-08
1.68593e-08
6.04426e-09
1.19619e-08
5.92877e-09
2.74908e-10
7.5695e-09
2.14375e-09
1.25516e-09
3.64033e-09
2.09681e-10
1.594e-09
1.69408e-09
3.038e-09
7.36507e-10
1.39502e-09
2.5032e-09
4.42006e-10
2.09772e-09
5.60165e-10
4.71821e-10
1.15083e-09
2.01713e-10
5.92066e-10
5.44541e-10
0
0
0
0
0
0
0
0
0
0
0
0
0
0
0
0
0
0
0
0
0
0
0
0
0
0
0
0
0
0
0
0
0
0
0
0
0
0
0
0
0
0
0
0
0
0
0
0
0
0
0
0
0
0
0
0
0
0
0
0
0
0
0
0
0
0
0
0
0
0
0
0
0
0
0
0
0
0
0
0
0
0
0
0
0
0
0
0
0
0
0
0
0
0
0
0
0
0
0
0
0
0
0
0
0
0
0
0
0
0
0
0
0
0
0
0
0
0
0
0
0
0
0
0
0
0
0
0
0
0
0
0
0
0
0
0
0
0
0
0
0
0
0
0
0
0
0
0
0
0
0
0
0
0
0
0
0
0
0
0
0
0
0
0
0
0
0
0
0
0
0
0
0
0
0
0
0
0
0
0
0
0
0
0
0
0
0
0
0
0
0
0
0
0
0
0
0
0
0
0
0
0
0
0
0
0
0
0
0
0
0
0
0
0
0
0
0
0
0
0
0
0
0
0
0
0
0
0
0
0
0
0
0
0
0
0
0
0
0
0
0
0
0
0
0
0
0
0
0
0
0
0
0
0
0
0
0
0
0
0
0
0
0
0
0
0
0
0
0
0
0
0
0
0
0
0
0
0
0
0.04
0.0253454
0.0253723
0.0253089
0.0255564
0.0252513
0.02524
0.0249117
0.0250433
0.024929
0.0250718
0.0245561
0.0249658
0.0250732
0.0250075
0.0247612
0.0250463
0.0251747
0.025047
0.0249847
0.0251499
0.0252033
0.0251071
0.0251178
0.0252014
0.0251948
0.0251615
0.0251753
0.0252077
0.0251872
0.025159
0.0251932
0.0251819
0.025159
0.0251891
0.025172
0.0251487
0.0251569
0.0251333
0.025159
0.0251772
0.0251011
0.0251184
0.0251846
0.0250891
0.0250567
0.0251775
0.0251211
0.0250004
0.0251378
0.0251922
0.0249319
0.0248998
0.02523
0.025209
0.0247598
0.0247424
0.0252516
0.0252701
0.0245301
0.0241935
0.0249815
0.0257613
0.0250312
0.0232107
0.022474
0.024231
0.0270811
0.0276132
0.0237198
0.0167507
0.00985185
0.00498933
0.0022531
0.00093017
0.000355801
0.000127003
4.27311e-05
1.34432e-05
3.8673e-06
1.18554e-06
5.19412e-07
6.41452e-08
4.02483e-08
1.73818e-07
5.2089e-08
1.03926e-07
6.04748e-08
5.79322e-08
5.67048e-08
2.11255e-08
6.88378e-08
1.7593e-08
2.03688e-08
1.00416e-08
1.96093e-08
2.47004e-08
1.38133e-08
5.78566e-09
1.32356e-08
8.81917e-09
4.55618e-10
7.87421e-09
1.45512e-09
5.92329e-10
4.61299e-09
6.52083e-10
3.70563e-10
2.09787e-09
2.84171e-09
6.91693e-10
1.33706e-09
2.27543e-09
5.24076e-10
2.02263e-09
4.33132e-10
3.62796e-10
9.40691e-10
6.12795e-11
4.82835e-10
4.84176e-10
0
0
0
0
0
0
0
0
0
0
0
0
0
0
0
0
0
0
0
0
0
0
0
0
0
0
0
0
0
0
0
0
0
0
0
0
0
0
0
0
0
0
0
0
0
0
0
0
0
0
0
0
0
0
0
0
0
0
0
0
0
0
0
0
0
0
0
0
0
0
0
0
0
0
0
0
0
0
0
0
0
0
0
0
0
0
0
0
0
0
0
0
0
0
0
0
0
0
0
0
0
0
0
0
0
0
0
0
0
0
0
0
0
0
0
0
0
0
0
0
0
0
0
0
0
0
0
0
0
0
0
0
0
0
0
0
0
0
0
0
0
0
0
0
0
0
0
0
0
0
0
0
0
0
0
0
0
0
0
0
0
0
0
0
0
0
0
0
0
0
0
0
0
0
0
0
0
0
0
0
0
0
0
0
0
0
0
0
0
0
0
0
0
0
0
0
0
0
0
0
0
0
0
0
0
0
0
0
0
0
0
0
0
0
0
0
0
0
0
0
0
0
0
0
0
0
0
0
0
0
0
0
0
0
0
0
0
0
0
0
0
0
0
0
0
0
0
0
0
0
0
0
0
0
0
0
0
0
0
0
0
0
0
0
0
0
0
0
0
0
0
0
0
0
0
0
0
0
0
0.04
0.0247183
0.0248925
0.0254953
0.0255444
0.0251902
0.0252969
0.0250752
0.0252766
0.0248604
0.0249831
0.0249044
0.0252296
0.0248429
0.0249006
0.0250751
0.0251905
0.0249679
0.0250005
0.0251747
0.0251767
0.0250683
0.0251105
0.0252092
0.0251746
0.0251227
0.0251749
0.0251953
0.0251664
0.0251592
0.0251772
0.0251927
0.0251501
0.0251417
0.0251843
0.0251563
0.0251392
0.0251603
0.025125
0.0251378
0.0251632
0.0250893
0.0250984
0.0251717
0.025091
0.0250516
0.0251555
0.0250943
0.0249746
0.0251116
0.0251731
0.024928
0.0249007
0.0252103
0.0251538
0.0246912
0.0247083
0.0252712
0.0252954
0.0244946
0.0241008
0.024908
0.025765
0.02508
0.0232206
0.0224039
0.0241288
0.0270509
0.0277243
0.0239382
0.0169782
0.0100188
0.00508686
0.00230228
0.000952516
0.000365413
0.000131057
4.39139e-05
1.37011e-05
4.13997e-06
1.14438e-06
3.0462e-07
1.09965e-07
1.15191e-07
1.32929e-07
1.21731e-07
1.5517e-09
1.24852e-07
2.72467e-08
6.97425e-08
7.69111e-08
1.52572e-08
4.29419e-08
8.49079e-09
3.47662e-08
2.47728e-08
1.31643e-08
7.79396e-09
1.099e-08
1.57733e-08
6.79975e-09
1.94587e-09
7.24561e-09
1.01549e-09
9.01326e-10
4.35936e-09
1.00718e-09
1.38416e-09
2.11241e-09
2.51743e-09
1.27642e-09
1.35301e-09
1.98294e-09
6.00008e-10
1.9516e-09
3.51133e-10
2.60528e-10
7.33864e-10
9.54959e-11
3.68302e-10
4.21983e-10
0
0
0
0
0
0
0
0
0
0
0
0
0
0
0
0
0
0
0
0
0
0
0
0
0
0
0
0
0
0
0
0
0
0
0
0
0
0
0
0
0
0
0
0
0
0
0
0
0
0
0
0
0
0
0
0
0
0
0
0
0
0
0
0
0
0
0
0
0
0
0
0
0
0
0
0
0
0
0
0
0
0
0
0
0
0
0
0
0
0
0
0
0
0
0
0
0
0
0
0
0
0
0
0
0
0
0
0
0
0
0
0
0
0
0
0
0
0
0
0
0
0
0
0
0
0
0
0
0
0
0
0
0
0
0
0
0
0
0
0
0
0
0
0
0
0
0
0
0
0
0
0
0
0
0
0
0
0
0
0
0
0
0
0
0
0
0
0
0
0
0
0
0
0
0
0
0
0
0
0
0
0
0
0
0
0
0
0
0
0
0
0
0
0
0
0
0
0
0
0
0
0
0
0
0
0
0
0
0
0
0
0
0
0
0
0
0
0
0
0
0
0
0
0
0
0
0
0
0
0
0
0
0
0
0
0
0
0
0
0
0
0
0
0
0
0
0
0
0
0
0
0
0
0
0
0
0
0
0
0
0
0
0
0
0
0
0
0
0
0
0
0
0
0
0
0
0
0
0
0.04
0.0251174
0.0255257
0.0253506
0.0251773
0.0252909
0.025372
0.0250338
0.0251982
0.0248461
0.0251677
0.0249663
0.0250224
0.0248277
0.0251471
0.0250718
0.0249583
0.0249816
0.0251799
0.0251243
0.0250182
0.0250998
0.0251979
0.0251459
0.0250969
0.0251582
0.0252014
0.0251448
0.0251409
0.0251812
0.0251696
0.0251626
0.0251553
0.0251543
0.0251647
0.0251378
0.0251494
0.0251682
0.0251111
0.0251272
0.0251705
0.0250923
0.0250903
0.0251728
0.0250988
0.0250477
0.0251442
0.0250923
0.024984
0.0251228
0.0251782
0.024921
0.024885
0.0252009
0.0251604
0.024708
0.0247224
0.0252677
0.025265
0.024451
0.0240788
0.0249283
0.025802
0.02508
0.0231537
0.0222904
0.0240274
0.0270273
0.027807
0.0240891
0.0171242
0.0101148
0.00513359
0.00231978
0.000957326
0.00036601
0.000130425
4.33394e-05
1.36063e-05
4.13541e-06
1.11205e-06
1.88932e-07
1.07687e-07
2.1871e-07
4.9279e-08
8.12924e-08
1.46085e-07
4.84091e-08
1.25499e-07
5.37727e-08
5.93185e-08
5.70993e-08
2.7516e-08
6.2942e-08
1.19184e-08
1.93688e-08
1.14696e-08
1.32525e-08
1.79828e-08
1.16281e-08
4.78688e-09
5.18185e-09
7.50182e-09
1.07544e-09
2.41552e-09
3.7022e-09
1.12428e-09
2.79818e-09
1.85418e-09
2.02191e-09
1.92592e-09
1.425e-09
1.61942e-09
6.62742e-10
1.87644e-09
3.45004e-10
1.69181e-10
5.35379e-10
2.35951e-10
2.51121e-10
3.58644e-10
0
0
0
0
0
0
0
0
0
0
0
0
0
0
0
0
0
0
0
0
0
0
0
0
0
0
0
0
0
0
0
0
0
0
0
0
0
0
0
0
0
0
0
0
0
0
0
0
0
0
0
0
0
0
0
0
0
0
0
0
0
0
0
0
0
0
0
0
0
0
0
0
0
0
0
0
0
0
0
0
0
0
0
0
0
0
0
0
0
0
0
0
0
0
0
0
0
0
0
0
0
0
0
0
0
0
0
0
0
0
0
0
0
0
0
0
0
0
0
0
0
0
0
0
0
0
0
0
0
0
0
0
0
0
0
0
0
0
0
0
0
0
0
0
0
0
0
0
0
0
0
0
0
0
0
0
0
0
0
0
0
0
0
0
0
0
0
0
0
0
0
0
0
0
0
0
0
0
0
0
0
0
0
0
0
0
0
0
0
0
0
0
0
0
0
0
0
0
0
0
0
0
0
0
0
0
0
0
0
0
0
0
0
0
0
0
0
0
0
0
0
0
0
0
0
0
0
0
0
0
0
0
0
0
0
0
0
0
0
0
0
0
0
0
0
0
0
0
0
0
0
0
0
0
0
0
0
0
0
0
0
0
0
0
0
0
0
0
0
0
0
0
0
0
0
0
0
0
0
0.04
0.0252378
0.025307
0.0251121
0.0253609
0.0253894
0.0252685
0.0250311
0.0252522
0.0249949
0.025251
0.024867
0.025078
0.0250663
0.0251437
0.0249108
0.0250603
0.0251718
0.0251019
0.0250012
0.025125
0.0252008
0.0251063
0.0250796
0.0251691
0.0251829
0.0251321
0.0251301
0.0251845
0.0251653
0.025116
0.0251592
0.0251749
0.0251407
0.0251438
0.0251348
0.0251402
0.0251459
0.0250989
0.0251262
0.0251637
0.0250822
0.025081
0.0251509
0.0250684
0.025034
0.0251523
0.0250954
0.0249609
0.0250806
0.0251406
0.0249075
0.0248939
0.0252033
0.0251262
0.0246496
0.024683
0.0252653
0.0252709
0.0244285
0.0240309
0.0248919
0.0258012
0.0250953
0.0231416
0.0222343
0.0239653
0.0270318
0.0279214
0.0242799
0.017314
0.0102509
0.00521198
0.00235929
0.000975888
0.00037444
0.000134045
4.51247e-05
1.44339e-05
4.14107e-06
1.13226e-06
4.50891e-07
1.63001e-07
1.19572e-07
1.09207e-07
6.56195e-08
1.29496e-07
1.35133e-07
1.62094e-08
1.19621e-07
3.08768e-08
7.15373e-08
7.22732e-08
1.74149e-08
4.3007e-08
8.78555e-09
3.47647e-08
1.35981e-08
1.13823e-08
7.49238e-09
3.80668e-09
9.38287e-09
5.58314e-09
1.83559e-09
4.09936e-09
2.85422e-09
1.01878e-09
3.92267e-09
1.40853e-09
1.34482e-09
2.48117e-09
1.52395e-09
1.18763e-09
7.08634e-10
1.78851e-09
4.14958e-10
9.24177e-11
3.50409e-10
3.70898e-10
1.34587e-10
2.94854e-10
0
0
0
0
0
0
0
0
0
0
0
0
0
0
0
0
0
0
0
0
0
0
0
0
0
0
0
0
0
0
0
0
0
0
0
0
0
0
0
0
0
0
0
0
0
0
0
0
0
0
0
0
0
0
0
0
0
0
0
0
0
0
0
0
0
0
0
0
0
0
0
0
0
0
0
0
0
0
0
0
0
0
0
0
0
0
0
0
0
0
0
0
0
0
0
0
0
0
0
0
0
0
0
0
0
0
0
0
0
0
0
0
0
0
0
0
0
0
0
0
0
0
0
0
0
0
0
0
0
0
0
0
0
0
0
0
0
0
0
0
0
0
0
0
0
0
0
0
0
0
0
0
0
0
0
0
0
0
0
0
0
0
0
0
0
0
0
0
0
0
0
0
0
0
0
0
0
0
0
0
0
0
0
0
0
0
0
0
0
0
0
0
0
0
0
0
0
0
0
0
0
0
0
0
0
0
0
0
0
0
0
0
0
0
0
0
0
0
0
0
0
0
0
0
0
0
0
0
0
0
0
0
0
0
0
0
0
0
0
0
0
0
0
0
0
0
0
0
0
0
0
0
0
0
0
0
0
0
0
0
0
0
0
0
0
0
0
0
0
0
0
0
0
0
0
0
0
0
0
0.04
0.0250551
0.02503
0.0252176
0.0253602
0.0250908
0.0252131
0.0251407
0.0252622
0.0249386
0.0251756
0.0249248
0.0251966
0.0249854
0.0250201
0.0250232
0.0251697
0.0250382
0.0250085
0.0251186
0.0251687
0.0250726
0.0250701
0.0251733
0.0251693
0.0250919
0.025124
0.0251745
0.0251624
0.0251273
0.0251356
0.0251733
0.0251414
0.02512
0.0251569
0.0251342
0.0251268
0.0251552
0.0251097
0.0251061
0.0251422
0.0250874
0.0250926
0.0251538
0.0250714
0.0250343
0.0251385
0.0250791
0.0249612
0.0250938
0.025154
0.0249131
0.0248833
0.0251757
0.0251055
0.0246605
0.0247141
0.0252757
0.0252378
0.0243742
0.024
0.0249071
0.0258349
0.0250925
0.0230757
0.0221323
0.0238869
0.0270331
0.0280186
0.0244318
0.0174524
0.0103374
0.00525205
0.00237343
0.000978899
0.000373751
0.000133086
4.43408e-05
1.35306e-05
3.90828e-06
1.21366e-06
3.11865e-07
1.19827e-07
5.54179e-08
2.06914e-08
1.80157e-07
6.06438e-08
1.03151e-07
1.33067e-07
4.5464e-08
1.25616e-07
5.13368e-08
5.59504e-08
5.10507e-08
2.0978e-08
5.37819e-08
1.7756e-08
1.81368e-08
7.73404e-09
1.30315e-08
7.67089e-09
8.28883e-09
3.19479e-09
7.11201e-10
5.64127e-09
1.54866e-09
8.01777e-10
4.70618e-09
8.91475e-10
5.17029e-10
2.88116e-09
1.61379e-09
7.09465e-10
7.36054e-10
1.67937e-09
5.28529e-10
3.54224e-11
1.86646e-10
4.94955e-10
3.55131e-11
2.31341e-10
0
0
0
0
0
0
0
0
0
0
0
0
0
0
0
0
0
0
0
0
0
0
0
0
0
0
0
0
0
0
0
0
0
0
0
0
0
0
0
0
0
0
0
0
0
0
0
0
0
0
0
0
0
0
0
0
0
0
0
0
0
0
0
0
0
0
0
0
0
0
0
0
0
0
0
0
0
0
0
0
0
0
0
0
0
0
0
0
0
0
0
0
0
0
0
0
0
0
0
0
0
0
0
0
0
0
0
0
0
0
0
0
0
0
0
0
0
0
0
0
0
0
0
0
0
0
0
0
0
0
0
0
0
0
0
0
0
0
0
0
0
0
0
0
0
0
0
0
0
0
0
0
0
0
0
0
0
0
0
0
0
0
0
0
0
0
0
0
0
0
0
0
0
0
0
0
0
0
0
0
0
0
0
0
0
0
0
0
0
0
0
0
0
0
0
0
0
0
0
0
0
0
0
0
0
0
0
0
0
0
0
0
0
0
0
0
0
0
0
0
0
0
0
0
0
0
0
0
0
0
0
0
0
0
0
0
0
0
0
0
0
0
0
0
0
0
0
0
0
0
0
0
0
0
0
0
0
0
0
0
0
0
0
0
0
0
0
0
0
0
0
0
0
0
0
0
0
0
0
0.04
0.0249014
0.0250603
0.0252899
0.0252228
0.0251417
0.0253332
0.0250858
0.0252419
0.0249845
0.0252362
0.0250083
0.0251814
0.0249473
0.0251346
0.0251136
0.0250751
0.0250074
0.0251492
0.0251557
0.0250573
0.0250743
0.0251719
0.025152
0.0250853
0.0251224
0.0251838
0.0251319
0.0251101
0.0251527
0.0251518
0.0251331
0.025123
0.025143
0.0251538
0.0250993
0.0251133
0.0251591
0.0250969
0.0250896
0.0251409
0.0250838
0.0250752
0.0251346
0.0250552
0.0250169
0.0251302
0.0250828
0.0249539
0.0250624
0.0251174
0.0248934
0.0248791
0.0251724
0.0250909
0.0246324
0.0246819
0.0252513
0.025221
0.0243568
0.0239846
0.0249019
0.0258358
0.0250828
0.0230429
0.0220844
0.0238562
0.0270668
0.0281394
0.0246039
0.0176113
0.0104464
0.00531344
0.00240397
0.000993523
0.000380694
0.000136284
4.58286e-05
1.44568e-05
4.49072e-06
1.33495e-06
2.90564e-07
1.25545e-07
1.88039e-07
1.214e-07
9.68897e-08
1.34788e-07
5.38802e-08
1.27589e-07
1.44205e-07
2.14897e-08
1.12861e-07
2.77843e-08
6.42019e-08
6.00943e-08
1.92741e-08
3.35249e-08
3.8396e-09
2.70671e-08
1.12269e-08
7.0843e-09
6.70129e-09
3.09325e-09
2.99928e-09
5.68927e-09
5.79799e-10
1.1122e-09
5.06997e-09
5.11664e-10
4.13513e-10
3.09696e-09
1.65916e-09
3.34481e-10
7.44999e-10
1.54128e-09
6.60345e-10
2.75034e-11
8.31391e-11
6.04448e-10
1.04024e-10
1.68931e-10
0
0
0
0
0
0
0
0
0
0
0
0
0
0
0
0
0
0
0
0
0
0
0
0
0
0
0
0
0
0
0
0
0
0
0
0
0
0
0
0
0
0
0
0
0
0
0
0
0
0
0
0
0
0
0
0
0
0
0
0
0
0
0
0
0
0
0
0
0
0
0
0
0
0
0
0
0
0
0
0
0
0
0
0
0
0
0
0
0
0
0
0
0
0
0
0
0
0
0
0
0
0
0
0
0
0
0
0
0
0
0
0
0
0
0
0
0
0
0
0
0
0
0
0
0
0
0
0
0
0
0
0
0
0
0
0
0
0
0
0
0
0
0
0
0
0
0
0
0
0
0
0
0
0
0
0
0
0
0
0
0
0
0
0
0
0
0
0
0
0
0
0
0
0
0
0
0
0
0
0
0
0
0
0
0
0
0
0
0
0
0
0
0
0
0
0
0
0
0
0
0
0
0
0
0
0
0
0
0
0
0
0
0
0
0
0
0
0
0
0
0
0
0
0
0
0
0
0
0
0
0
0
0
0
0
0
0
0
0
0
0
0
0
0
0
0
0
0
0
0
0
0
0
0
0
0
0
0
0
0
0
0
0
0
0
0
0
0
0
0
0
0
0
0
0
0
0
0
0
0.04
0.0251706
0.0253397
0.025141
0.0251241
0.0252579
0.0252772
0.0249962
0.0252676
0.0250124
0.0252317
0.0249577
0.02515
0.0250244
0.0251631
0.0250086
0.0250593
0.0251158
0.02513
0.025038
0.025085
0.0251664
0.0251168
0.0250645
0.02513
0.0251717
0.0251249
0.0250893
0.0251499
0.0251636
0.0251072
0.0251239
0.0251484
0.0251328
0.0251276
0.0251055
0.0251228
0.0251436
0.025089
0.0251005
0.0251411
0.0250677
0.025067
0.0251401
0.0250601
0.0250203
0.0251317
0.0250702
0.0249329
0.0250587
0.025137
0.0249108
0.0248714
0.025143
0.0250648
0.0246325
0.0247042
0.0252622
0.0251936
0.0243092
0.0239591
0.0249126
0.0258535
0.0250674
0.0229829
0.0220054
0.0238068
0.027092
0.0282458
0.024748
0.0177348
0.0105217
0.00534722
0.00241464
0.000994987
0.000379782
0.000135013
4.46339e-05
1.40332e-05
4.04173e-06
7.49207e-07
3.9696e-07
1.97734e-07
5.9189e-08
9.16533e-08
5.54128e-08
5.85678e-08
1.68612e-07
6.50313e-08
1.02591e-07
1.29641e-07
3.46133e-08
1.24523e-07
4.43925e-08
5.15547e-08
3.88346e-08
1.59247e-08
3.82208e-08
1.60562e-08
1.34071e-08
4.52269e-09
1.12514e-08
3.83539e-09
4.10477e-09
5.01609e-09
5.86237e-10
2.27804e-09
4.89139e-09
6.18571e-10
1.39526e-09
3.11718e-09
1.63113e-09
6.28744e-10
7.37032e-10
1.36787e-09
7.9789e-10
4.96398e-11
1.47416e-10
6.96343e-10
2.08007e-10
1.08871e-10
0
0
0
0
0
0
0
0
0
0
0
0
0
0
0
0
0
0
0
0
0
0
0
0
0
0
0
0
0
0
0
0
0
0
0
0
0
0
0
0
0
0
0
0
0
0
0
0
0
0
0
0
0
0
0
0
0
0
0
0
0
0
0
0
0
0
0
0
0
0
0
0
0
0
0
0
0
0
0
0
0
0
0
0
0
0
0
0
0
0
0
0
0
0
0
0
0
0
0
0
0
0
0
0
0
0
0
0
0
0
0
0
0
0
0
0
0
0
0
0
0
0
0
0
0
0
0
0
0
0
0
0
0
0
0
0
0
0
0
0
0
0
0
0
0
0
0
0
0
0
0
0
0
0
0
0
0
0
0
0
0
0
0
0
0
0
0
0
0
0
0
0
0
0
0
0
0
0
0
0
0
0
0
0
0
0
0
0
0
0
0
0
0
0
0
0
0
0
0
0
0
0
0
0
0
0
0
0
0
0
0
0
0
0
0
0
0
0
0
0
0
0
0
0
0
0
0
0
0
0
0
0
0
0
0
0
0
0
0
0
0
0
0
0
0
0
0
0
0
0
0
0
0
0
0
0
0
0
0
0
0
0
0
0
0
0
0
0
0
0
0
0
0
0
0
0
0
0
0
0.04
0.0251127
0.0250736
0.0250787
0.0252737
0.0251908
0.0251721
0.0250823
0.0253051
0.0249816
0.0252449
0.0249909
0.0251995
0.025047
0.0251242
0.0250351
0.0251549
0.0251054
0.0250581
0.0250871
0.0251622
0.0251146
0.0250666
0.0251309
0.0251638
0.0251017
0.0250998
0.0251424
0.0251509
0.0251123
0.0251084
0.0251517
0.0251219
0.025094
0.0251398
0.0251223
0.0250999
0.0251208
0.0250877
0.0250905
0.025121
0.0250651
0.0250719
0.0251245
0.0250337
0.025004
0.0251218
0.025061
0.0249278
0.0250512
0.025115
0.0248802
0.0248497
0.0251347
0.0250616
0.0246261
0.0246851
0.0252275
0.0251589
0.0242942
0.0239664
0.0249247
0.0258511
0.0250424
0.0229411
0.0219672
0.0238023
0.02715
0.0283702
0.0249024
0.0178682
0.0106079
0.00539299
0.00243747
0.00100617
0.000384984
0.000137813
4.63328e-05
1.45543e-05
4.31396e-06
1.39916e-06
4.81748e-07
1.17281e-07
1.07033e-07
6.33715e-08
1.59482e-07
1.11472e-07
8.1123e-08
1.46779e-07
5.60926e-08
1.18927e-07
1.4145e-07
2.24373e-08
1.03743e-07
2.62095e-08
5.66257e-08
4.43142e-08
1.74294e-08
2.0959e-08
6.49207e-10
1.76266e-08
1.00107e-08
4.68996e-09
4.98036e-09
5.10357e-09
7.32393e-10
3.31244e-09
4.27103e-09
8.25562e-10
2.35269e-09
2.94551e-09
1.50771e-09
1.188e-09
7.15255e-10
1.15462e-09
9.34394e-10
6.12562e-11
2.50199e-10
7.68237e-10
3.0602e-10
5.50448e-11
0
0
0
0
0
0
0
0
0
0
0
0
0
0
0
0
0
0