# vtk DataFile Version 3.0
LBM output step 890
ASCII
DATASET STRUCTURED_POINTS
DIMENSIONS 400 100 1
ORIGIN 0 0 0
SPACING 1 1 1
POINT_DATA 40000
SCALARS velocity_magnitude double 1
LOOKUP_TABLE default
0
0
0
0
0
0
0
0
0
0
0
0
0
0
0
0
0
0
0
0
0
0
0
0
0
0
0
0
0
0
0
0
0
0
0
0
0
0
0
0
0
0
0
0
0
0
0
0
0
0
0
0
0
0
0
0
0
0
0
0
0
0
0
0
0
0
0
0
0
0
0
0
0
0
0
0
0
0
0
0
0
0
0
0
0
0
0
0
0
0
0
0
0
0
0
0
0
0
0
0
0
0
0
0
0
0
0
0
0
0
0
0
0
0
0
0
0
0
0
0
0
0
0
0
0
0
0
0
0
0
0
0
0
0
0
0
0
0
0
0
0
0
0
0
0
0
0
0
0
0
0
0
0
0
0
0
0
0
0
0
0
0
0
0
0
0
0
0
0
0
0
0
0
0
0
0
0
0
0
0
0
0
0
0
0
0
0
0
0
0
0
0
0
0
0
0
0
0
0
0
0
0
0
0
0
0
0
0
0
0
0
0
0
0
0
0
0
0
0
0
0
0
0
0
0
0
0
0
0
0
0
0
0
0
0
0
0
0
0
0
0
0
0
0
0
0
0
0
0
0
0
0
0
0
0
0
0
0
0
0
0
0
0
0
0
0
0
0
0
0
0
0
0
0
0
0
0
0
0
0
0
0
0
0
0
0
0
0
0
0
0
0
0
0
0
0
0
0
0
0
0
0
0
0
0
0
0
0
0
0
0
0
0
0
0
0
0
0
0
0
0
0
0
0
0
0
0
0
0
0
0
0
0
0
0
0
0
0
0
0
0
0
0
0
0
0
0
0
0
0
0
0
0
0
0
0
0
0
0
0
0
0
0
0
0
0
0
0
0
0
0
0
0
0
0
0
0
0
0
0
0
0
0
0
0
0
0
0
0
0
0
0
0
0
0
0
0
0
0
0
0.04
0.0142247
0.00863423
0.0133648
0.0158065
0.0154203
0.0123828
0.0117597
0.0117806
0.011819
0.0114529
0.0114356
0.0111562
0.01097
0.0108288
0.0108099
0.0106336
0.010519
0.0104263
0.0103702
0.010261
0.0102081
0.0101521
0.0100987
0.0100239
0.00997609
0.00990833
0.00983321
0.00974665
0.00966838
0.00957254
0.00947536
0.00937642
0.00928146
0.00918036
0.00908394
0.00899266
0.00890328
0.00881831
0.00873666
0.00866512
0.00859017
0.00852781
0.00845913
0.0084048
0.00833535
0.00828365
0.00821064
0.00815759
0.00807748
0.00802249
0.00793711
0.00788072
0.00779258
0.00773717
0.00765037
0.00759733
0.0075147
0.00746624
0.00739135
0.00734798
0.00728308
0.00724748
0.00719434
0.00716629
0.00712696
0.00710855
0.0070818
0.00707269
0.00705975
0.007059
0.00705589
0.00706296
0.00706847
0.00707911
0.00708969
0.00710454
0.00711791
0.00713327
0.00714951
0.00716677
0.0071826
0.00719949
0.00721668
0.00723273
0.00724705
0.00726157
0.00727472
0.00728511
0.00729303
0.00729966
0.00730296
0.0073025
0.00729919
0.00729367
0.00728395
0.00727053
0.00725409
0.0072344
0.0072103
0.00718362
0.00715473
0.0071235
0.00709025
0.0070565
0.00702137
0.00698503
0.00694821
0.00691137
0.00687384
0.00683679
0.00680087
0.00676627
0.0067331
0.0067026
0.00667465
0.00664881
0.00662488
0.00660314
0.00658238
0.00656219
0.00654323
0.00652559
0.00650835
0.00649265
0.00647948
0.00646801
0.00645843
0.00645279
0.00645063
0.0064506
0.00645358
0.00645946
0.00646505
0.00646897
0.00647177
0.00647168
0.00646667
0.00645837
0.00644825
0.0064353
0.00642019
0.00640562
0.00639186
0.00637786
0.00636493
0.00635453
0.00634557
0.00633747
0.0063315
0.0063278
0.006325
0.00632297
0.00632241
0.00632272
0.00632292
0.00632333
0.00632436
0.00632553
0.00632665
0.00632839
0.00633107
0.00633442
0.00633871
0.00634438
0.00635121
0.00635891
0.00636767
0.00637744
0.00638783
0.00639892
0.00641103
0.0064241
0.0064381
0.00645337
0.00647005
0.00648788
0.00650667
0.00652634
0.00654649
0.0065665
0.00658596
0.00660454
0.00662185
0.00663759
0.00665172
0.00666435
0.00667548
0.0066852
0.00669365
0.00670086
0.00670687
0.00671172
0.00671551
0.00671821
0.00671972
0.00671989
0.00671844
0.00671507
0.00670952
0.00670164
0.00669135
0.00667865
0.00666366
0.00664663
0.0066279
0.00660796
0.00658744
0.00656695
0.00654714
0.00652856
0.0065118
0.00649742
0.00648606
0.00647842
0.00647518
0.00647685
0.00648362
0.00649538
0.0065117
0.00653203
0.00655591
0.00658314
0.00661382
0.00664828
0.00668687
0.00672977
0.00677675
0.00682716
0.00687993
0.00693369
0.00698686
0.00703784
0.00708511
0.0071273
0.00716332
0.00719243
0.00721421
0.00722861
0.00723589
0.00723665
0.00723181
0.00722263
0.00721072
0.00719798
0.00718644
0.00717815
0.00717492
0.00717813
0.00718855
0.00720627
0.00723061
0.00726029
0.00729344
0.00732785
0.00736112
0.00739094
0.00741533
0.00743282
0.00744258
0.0074444
0.00743854
0.00742559
0.00740628
0.00738143
0.00735203
0.00731936
0.00728531
0.00725244
0.00722386
0.00720303
0.0071936
0.00719968
0.00722643
0.00728113
0.00737402
0.00751855
0.00773043
0.00802529
0.00841489
0.00890257
0.00947896
0.0101194
0.0107839
0.0114213
0.0119764
0.0124016
0.0126707
0.0127907
0.0128042
0.012776
0.0127654
0.0127981
0.0128576
0.0129063
0.0129186
0.0129013
0.0128835
0.0128859
0.0128997
0.0128952
0.0128507
0.0127723
0.0126881
0.0126249
0.0125914
0.0125797
0.0125788
0.0125852
0.0126023
0.0126316
0.012665
0.0126851
0.0126742
0.0126216
0.0125263
0.0123946
0.0122363
0.0120622
0.0118853
0.0117207
0.0115826
0.0114783
0.0114065
0.0113591
0.011325
0.0112955
0.0112666
0.0112391
0.0112164
0.0112036
0.011205
0.0112229
0.0112562
0.0113005
0.01135
0.0113992
0.0114441
0.0114816
0.0115096
0.0115271
0.0115344
0.0115338
0.011529
0.0115243
0.011524
0.0115311
0.0115468
0.0115707
0.0116008
0.0116349
0.0116705
0.0117052
0.011737
0.0117646
0.0117875
0.0118068
0.0118239
0.011841
0.0118603
0.0118834
0.0119111
0.0119439
0.011981
0.0120212
0.0120625
0.0121028
0.0121394
0.0121705
0.0121946
0.012211
0.0122202
0.0122234
0.0122226
0.0122202
0.0122185
0.0122191
0.0122233
0.0122311
0.0122418
0.0122538
0.0122653
0.012274
0.0122779
0.0122755
0.0122661
0.0122504
0.0122299
0.012207
0.0121843
0.0121639
0.0121471
0.0121349
0.0121273
0.0121235
0.0121226
0.0121275
0.0121326
0.0121336
0.0121336
0.04
0.0231951
0.0246663
0.0221143
0.0150751
0.0143632
0.0174356
0.0180967
0.016467
0.0158401
0.0159533
0.015793
0.0154484
0.0153919
0.0152381
0.0149802
0.0148196
0.0147883
0.0146652
0.0145408
0.014494
0.0144798
0.0144234
0.0143933
0.0143872
0.0143617
0.0143076
0.014264
0.0142119
0.0141371
0.0140531
0.0139767
0.0138934
0.0138034
0.0137205
0.0136441
0.0135694
0.0134959
0.0134371
0.0133783
0.013331
0.0132808
0.0132508
0.013208
0.013187
0.0131462
0.0131336
0.0130884
0.0130779
0.0130266
0.0130187
0.0129605
0.0129546
0.0128935
0.0128929
0.0128312
0.0128358
0.01278
0.0127916
0.0127425
0.0127622
0.0127267
0.0127531
0.012731
0.0127678
0.0127624
0.0128053
0.0128176
0.0128709
0.0128973
0.0129564
0.0129994
0.0130643
0.0131148
0.0131843
0.0132449
0.0133138
0.013377
0.0134497
0.0135161
0.0135844
0.0136518
0.0137218
0.0137856
0.0138489
0.0139116
0.0139714
0.0140245
0.0140756
0.0141234
0.0141645
0.0141985
0.0142289
0.0142532
0.0142695
0.0142794
0.014284
0.0142807
0.0142702
0.0142537
0.0142308
0.0142018
0.0141685
0.0141299
0.0140871
0.0140416
0.0139923
0.0139389
0.0138846
0.0138285
0.0137691
0.0137102
0.013653
0.0135943
0.0135366
0.0134833
0.0134307
0.0133775
0.0133283
0.0132812
0.0132324
0.0131855
0.0131426
0.0130999
0.013058
0.0130211
0.0129879
0.0129559
0.0129283
0.0129068
0.0128883
0.0128716
0.0128589
0.0128481
0.0128354
0.0128209
0.0128056
0.0127874
0.0127651
0.0127416
0.0127182
0.0126936
0.0126688
0.0126464
0.0126262
0.0126068
0.0125896
0.012576
0.0125645
0.0125545
0.0125474
0.0125432
0.0125403
0.0125386
0.0125388
0.0125402
0.012542
0.0125443
0.0125477
0.0125517
0.0125561
0.0125617
0.0125687
0.0125768
0.012586
0.0125969
0.012609
0.012622
0.0126361
0.0126513
0.0126673
0.0126842
0.0127023
0.0127218
0.0127425
0.0127644
0.0127878
0.0128124
0.0128375
0.012863
0.0128885
0.0129133
0.012937
0.0129592
0.0129799
0.0129986
0.0130156
0.0130308
0.0130445
0.0130565
0.013067
0.0130761
0.0130839
0.0130903
0.0130954
0.0130991
0.0131012
0.0131015
0.0130999
0.0130962
0.0130901
0.0130819
0.0130714
0.0130591
0.0130453
0.0130304
0.013015
0.0129999
0.0129858
0.0129732
0.0129627
0.0129549
0.0129502
0.0129493
0.0129526
0.0129607
0.012974
0.0129928
0.0130168
0.0130457
0.013079
0.0131162
0.0131572
0.0132019
0.0132505
0.0133033
0.0133602
0.0134207
0.013484
0.0135488
0.0136136
0.0136767
0.0137365
0.0137914
0.0138402
0.0138818
0.0139156
0.0139414
0.0139594
0.0139701
0.0139745
0.0139735
0.013969
0.0139625
0.0139561
0.0139518
0.0139517
0.0139571
0.0139693
0.0139888
0.0140152
0.0140477
0.0140849
0.0141248
0.0141651
0.0142034
0.0142375
0.0142654
0.0142859
0.0142982
0.0143023
0.0142986
0.0142879
0.0142712
0.0142497
0.0142247
0.0141978
0.014171
0.014147
0.0141287
0.0141195
0.0141227
0.0141426
0.0141845
0.014256
0.0143679
0.0145345
0.0147725
0.0150991
0.0155279
0.0160644
0.0167012
0.0174153
0.0181676
0.0189064
0.0195745
0.0201209
0.0205149
0.0207591
0.0208928
0.0209795
0.0210782
0.0212144
0.0213707
0.0215074
0.0215981
0.0216502
0.0216946
0.0217535
0.021818
0.0218574
0.0218496
0.021802
0.0217445
0.0217049
0.0216918
0.0216973
0.021711
0.0217305
0.0217606
0.021804
0.0218527
0.0218896
0.0218971
0.0218648
0.0217923
0.0216857
0.0215538
0.0214065
0.0212562
0.0211176
0.0210047
0.0209249
0.020877
0.0208528
0.0208417
0.0208353
0.02083
0.0208267
0.0208284
0.02084
0.0208658
0.020908
0.0209654
0.0210335
0.0211061
0.0211773
0.0212426
0.0212986
0.0213433
0.0213755
0.021396
0.0214075
0.0214139
0.02142
0.0214298
0.0214467
0.021472
0.0215054
0.0215452
0.0215892
0.0216348
0.0216797
0.0217218
0.0217595
0.0217926
0.0218216
0.021848
0.0218738
0.0219009
0.0219309
0.0219649
0.022003
0.0220449
0.0220891
0.022134
0.0221776
0.0222177
0.0222526
0.0222811
0.022303
0.0223184
0.0223286
0.0223354
0.0223409
0.022347
0.0223552
0.0223664
0.0223805
0.022397
0.0224143
0.0224308
0.0224443
0.022453
0.0224555
0.0224512
0.0224407
0.0224257
0.0224083
0.0223909
0.0223756
0.0223638
0.0223558
0.0223515
0.0223512
0.0223523
0.0223531
0.0223533
0.022354
0.022354
0.04
0.0241382
0.0221659
0.0191779
0.0202583
0.0223293
0.0213041
0.019643
0.0198387
0.0203602
0.0198099
0.0192087
0.0190945
0.0190076
0.0186849
0.0184944
0.0183946
0.0182415
0.0180714
0.0180221
0.0179842
0.0179261
0.0178987
0.0179257
0.0179297
0.0179199
0.0179183
0.0179143
0.017877
0.0178318
0.0177868
0.0177325
0.0176657
0.0176051
0.0175496
0.0174921
0.0174392
0.0173949
0.0173592
0.0173228
0.0173003
0.0172779
0.0172698
0.0172525
0.0172569
0.0172433
0.0172552
0.0172382
0.0172564
0.0172335
0.0172564
0.0172262
0.0172555
0.0172207
0.0172578
0.0172202
0.0172678
0.0172329
0.0172898
0.0172606
0.0173299
0.0173105
0.0173881
0.0173836
0.0174714
0.017481
0.0175759
0.0176048
0.0177051
0.0177487
0.0178546
0.0179149
0.0180207
0.0180929
0.0182022
0.0182834
0.0183897
0.0184798
0.0185871
0.018679
0.0187838
0.0188811
0.0189827
0.0190761
0.0191747
0.0192673
0.0193567
0.0194408
0.0195241
0.0195993
0.0196678
0.0197304
0.0197878
0.0198353
0.0198746
0.0199071
0.0199318
0.0199458
0.0199513
0.01995
0.01994
0.0199204
0.0198953
0.0198646
0.0198258
0.0197809
0.0197333
0.0196793
0.0196193
0.0195575
0.0194931
0.0194234
0.0193531
0.0192837
0.0192121
0.0191395
0.0190699
0.0190001
0.0189288
0.0188594
0.0187917
0.0187227
0.0186549
0.0185906
0.0185279
0.0184667
0.0184102
0.0183582
0.0183091
0.0182641
0.0182248
0.0181888
0.0181543
0.0181222
0.0180915
0.0180592
0.0180251
0.0179906
0.0179551
0.0179177
0.0178804
0.0178452
0.0178109
0.0177776
0.0177472
0.01772
0.0176945
0.0176713
0.0176518
0.0176352
0.0176207
0.0176091
0.0176004
0.0175938
0.0175887
0.0175852
0.0175831
0.0175819
0.0175815
0.0175822
0.017584
0.0175869
0.017591
0.0175967
0.0176039
0.0176123
0.017622
0.0176331
0.0176451
0.017658
0.0176721
0.0176873
0.0177035
0.0177211
0.0177402
0.0177607
0.0177826
0.0178057
0.0178298
0.0178545
0.0178793
0.0179038
0.0179277
0.0179506
0.0179721
0.0179922
0.0180107
0.0180277
0.0180432
0.0180572
0.0180698
0.0180811
0.018091
0.0180997
0.0181072
0.0181133
0.018118
0.018121
0.0181222
0.0181212
0.0181179
0.0181122
0.0181043
0.0180942
0.0180826
0.0180699
0.018057
0.0180445
0.0180332
0.0180238
0.0180167
0.0180124
0.0180111
0.0180133
0.0180194
0.0180297
0.0180446
0.0180643
0.0180889
0.0181182
0.0181518
0.0181893
0.0182306
0.0182756
0.0183243
0.0183767
0.0184328
0.0184922
0.0185542
0.0186175
0.018681
0.018743
0.0188022
0.0188569
0.018906
0.0189482
0.0189831
0.0190102
0.0190297
0.0190421
0.0190484
0.0190497
0.0190477
0.019044
0.0190407
0.0190396
0.0190424
0.0190505
0.0190649
0.0190858
0.0191132
0.0191463
0.0191838
0.0192239
0.0192645
0.0193036
0.0193388
0.0193684
0.0193909
0.0194054
0.0194116
0.01941
0.0194013
0.0193867
0.0193676
0.0193455
0.0193222
0.0192996
0.0192801
0.0192661
0.0192604
0.0192663
0.0192876
0.0193296
0.0194
0.0195095
0.019672
0.0199042
0.0202228
0.0206416
0.0211662
0.0217897
0.0224895
0.0232269
0.0239496
0.0246002
0.0251269
0.0254994
0.0257216
0.0258361
0.0259103
0.0260064
0.0261495
0.026318
0.0264665
0.0265648
0.0266212
0.0266708
0.0267391
0.0268174
0.0268721
0.0268793
0.0268472
0.0268076
0.0267889
0.0267981
0.0268249
0.0268575
0.0268939
0.02694
0.0269997
0.0270663
0.0271233
0.0271536
0.0271474
0.0271046
0.0270314
0.0269355
0.026825
0.0267103
0.0266042
0.0265192
0.0264621
0.0264317
0.0264208
0.02642
0.0264224
0.0264259
0.0264314
0.0264422
0.0264628
0.0264976
0.0265492
0.0266166
0.0266958
0.0267806
0.0268649
0.0269437
0.027013
0.0270698
0.0271128
0.0271422
0.0271606
0.0271718
0.0271804
0.0271905
0.0272054
0.027227
0.0272557
0.0272905
0.0273297
0.0273716
0.027414
0.0274553
0.0274943
0.0275305
0.0275646
0.0275977
0.0276314
0.0276671
0.0277061
0.0277485
0.0277941
0.0278417
0.02789
0.027937
0.0279811
0.0280207
0.0280547
0.0280825
0.0281039
0.0281196
0.0281304
0.028138
0.0281439
0.0281498
0.0281569
0.028166
0.0281771
0.0281899
0.0282033
0.0282159
0.0282259
0.0282317
0.028232
0.028226
0.0282138
0.0281965
0.028176
0.0281541
0.0281325
0.0281132
0.0280973
0.0280842
0.0280751
0.0280699
0.0280663
0.0280644
0.0280655
0.0280655
0.04
0.0259532
0.0271764
0.0271002
0.0267313
0.0240646
0.0224377
0.0234052
0.0240613
0.0229042
0.0220008
0.0221952
0.0222038
0.0216945
0.0213592
0.0213348
0.0211509
0.0209025
0.0207945
0.0207549
0.0206317
0.0205652
0.0205799
0.0205964
0.0205808
0.0206109
0.0206505
0.0206603
0.0206501
0.0206544
0.0206416
0.0206092
0.0205761
0.0205522
0.0205189
0.0204852
0.020462
0.0204447
0.0204279
0.0204166
0.0204176
0.0204173
0.0204259
0.0204328
0.020454
0.020462
0.0204891
0.0204964
0.0205295
0.0205303
0.0205689
0.0205628
0.0206086
0.0205955
0.0206506
0.0206326
0.0207009
0.0206806
0.0207622
0.020745
0.0208417
0.020829
0.0209395
0.0209385
0.0210593
0.0210702
0.0212012
0.0212277
0.0213615
0.0214049
0.0215426
0.0215996
0.0217358
0.0218097
0.021944
0.0220275
0.0221609
0.0222571
0.0223852
0.022488
0.0226171
0.0227248
0.0228466
0.0229579
0.0230782
0.0231847
0.0232957
0.0234007
0.0235034
0.0235953
0.0236861
0.0237696
0.0238444
0.0239096
0.0239701
0.0240202
0.0240598
0.0240911
0.024114
0.0241256
0.024129
0.0241242
0.0241101
0.0240885
0.0240609
0.0240246
0.0239818
0.0239344
0.0238798
0.0238185
0.023755
0.0236867
0.0236126
0.0235378
0.0234621
0.0233817
0.0233006
0.023221
0.0231385
0.0230536
0.0229709
0.022888
0.0228031
0.0227203
0.0226411
0.0225626
0.0224865
0.0224155
0.0223489
0.0222848
0.0222246
0.0221691
0.0221159
0.0220633
0.0220119
0.0219616
0.02191
0.021857
0.0218048
0.0217536
0.0217022
0.0216522
0.0216058
0.0215617
0.021519
0.0214794
0.0214437
0.02141
0.0213786
0.021351
0.0213272
0.0213057
0.0212868
0.0212714
0.0212585
0.021247
0.021237
0.0212289
0.0212221
0.0212159
0.0212112
0.0212084
0.0212067
0.0212062
0.0212077
0.0212106
0.0212146
0.0212199
0.0212265
0.021234
0.0212424
0.0212522
0.0212633
0.0212756
0.0212894
0.0213051
0.0213222
0.0213405
0.0213601
0.0213806
0.0214015
0.0214225
0.0214433
0.0214636
0.0214829
0.021501
0.0215178
0.0215332
0.021547
0.0215594
0.0215704
0.0215799
0.021588
0.0215947
0.0215999
0.0216037
0.0216059
0.0216064
0.0216048
0.021601
0.0215945
0.0215854
0.0215736
0.0215595
0.0215438
0.021527
0.0215102
0.0214941
0.0214795
0.0214673
0.0214577
0.0214513
0.0214481
0.0214483
0.021452
0.0214595
0.021471
0.0214869
0.0215073
0.0215322
0.0215615
0.021595
0.0216324
0.0216736
0.0217185
0.0217669
0.0218187
0.0218734
0.0219304
0.0219887
0.0220471
0.0221043
0.0221588
0.0222091
0.022254
0.0222923
0.0223233
0.0223466
0.0223622
0.0223707
0.0223731
0.0223709
0.0223657
0.0223593
0.0223536
0.0223505
0.0223513
0.0223573
0.0223692
0.022387
0.0224107
0.0224393
0.0224718
0.0225065
0.0225415
0.0225747
0.0226042
0.022628
0.0226447
0.0226535
0.0226538
0.0226461
0.022631
0.02261
0.0225847
0.0225571
0.0225289
0.0225022
0.0224788
0.0224609
0.0224507
0.0224511
0.0224661
0.0225011
0.0225641
0.0226659
0.0228206
0.0230447
0.0233551
0.0237657
0.0242828
0.0248997
0.0255943
0.0263273
0.0270458
0.0276907
0.028209
0.0285694
0.0287765
0.0288751
0.0289369
0.0290268
0.0291697
0.0293393
0.0294838
0.0295691
0.0296054
0.0296337
0.0296845
0.0297491
0.0297904
0.0297814
0.0297313
0.0296756
0.0296447
0.0296443
0.0296606
0.0296797
0.0296997
0.0297288
0.0297738
0.0298297
0.0298801
0.029907
0.0299007
0.0298624
0.0297988
0.0297168
0.0296223
0.0295226
0.0294275
0.0293483
0.0292915
0.0292569
0.0292383
0.0292279
0.0292202
0.0292139
0.0292108
0.029214
0.0292277
0.0292562
0.0293019
0.0293645
0.0294403
0.0295232
0.0296069
0.0296858
0.0297548
0.02981
0.0298494
0.0298731
0.0298837
0.0298853
0.029882
0.0298781
0.029877
0.0298811
0.0298915
0.0299082
0.0299303
0.0299566
0.0299856
0.0300157
0.030046
0.0300761
0.0301065
0.0301382
0.0301723
0.0302097
0.0302508
0.0302953
0.0303419
0.0303892
0.0304352
0.0304781
0.0305166
0.0305496
0.0305768
0.0305979
0.0306134
0.0306239
0.0306301
0.0306331
0.0306342
0.0306344
0.0306347
0.0306356
0.0306375
0.0306401
0.030643
0.0306452
0.0306454
0.0306423
0.0306346
0.0306215
0.030603
0.0305792
0.0305514
0.0305212
0.0304903
0.03046
0.0304326
0.030409
0.0303892
0.0303733
0.030362
0.0303573
0.0303586
0.0303586
0.04
0.026792
0.0278464
0.026467
0.0256793
0.0257188
0.0266655
0.0259599
0.0244704
0.0243077
0.0249395
0.0246066
0.0238038
0.0236262
0.0237079
0.0234416
0.023096
0.0230057
0.0229179
0.0227314
0.0226057
0.0225917
0.0225409
0.0224931
0.0225108
0.0225604
0.0225725
0.0225956
0.0226361
0.0226617
0.0226588
0.0226645
0.0226697
0.0226618
0.0226486
0.0226478
0.0226467
0.0226431
0.0226465
0.0226582
0.0226709
0.0226843
0.0227073
0.0227293
0.0227565
0.022779
0.0228139
0.0228352
0.0228727
0.02289
0.022933
0.022943
0.0229925
0.0229954
0.0230547
0.0230509
0.0231239
0.0231146
0.0232049
0.023194
0.0233015
0.0232921
0.0234185
0.0234137
0.0235537
0.023559
0.0237099
0.0237253
0.023882
0.0239127
0.0240693
0.0241139
0.0242704
0.0243305
0.0244811
0.0245572
0.0247056
0.0247931
0.0249366
0.0250384
0.0251778
0.0252849
0.025422
0.025537
0.0256661
0.0257801
0.0259063
0.026018
0.0261311
0.0262362
0.0263415
0.0264345
0.0265225
0.026603
0.026677
0.0267388
0.0267924
0.0268378
0.0268741
0.0268982
0.0269141
0.0269227
0.0269215
0.0269099
0.026893
0.0268691
0.0268349
0.0267941
0.0267494
0.0266955
0.026634
0.0265702
0.0265013
0.0264246
0.0263463
0.0262665
0.0261809
0.0260921
0.0260041
0.0259128
0.0258175
0.025723
0.0256291
0.025533
0.0254379
0.0253464
0.0252569
0.0251689
0.0250853
0.0250061
0.0249291
0.0248542
0.0247829
0.0247134
0.0246435
0.0245741
0.0245062
0.0244382
0.0243697
0.0243034
0.0242401
0.0241781
0.0241184
0.024063
0.0240108
0.0239602
0.0239124
0.0238685
0.0238273
0.0237882
0.0237528
0.0237214
0.023693
0.0236669
0.0236441
0.0236241
0.0236056
0.0235885
0.0235734
0.02356
0.0235476
0.0235367
0.0235278
0.0235205
0.0235143
0.0235098
0.0235068
0.0235048
0.0235037
0.0235039
0.0235052
0.0235073
0.0235108
0.023516
0.0235224
0.0235304
0.0235402
0.0235515
0.023564
0.0235776
0.0235921
0.0236072
0.0236223
0.0236373
0.023652
0.0236658
0.0236784
0.0236898
0.0236998
0.0237082
0.0237151
0.0237206
0.0237246
0.023727
0.0237278
0.0237271
0.0237247
0.0237203
0.0237138
0.0237049
0.023693
0.0236783
0.0236607
0.0236407
0.0236189
0.0235962
0.0235736
0.0235521
0.0235326
0.0235157
0.023502
0.0234917
0.0234848
0.0234813
0.0234812
0.0234843
0.023491
0.0235014
0.0235158
0.0235344
0.0235572
0.0235841
0.023615
0.0236497
0.0236879
0.0237294
0.023774
0.0238212
0.0238703
0.0239205
0.0239709
0.0240202
0.0240671
0.0241102
0.0241482
0.0241799
0.0242045
0.0242215
0.024231
0.0242334
0.0242299
0.0242219
0.0242113
0.0241999
0.0241897
0.0241824
0.0241792
0.024181
0.0241884
0.0242013
0.0242192
0.0242415
0.0242668
0.0242937
0.0243204
0.0243451
0.0243659
0.0243812
0.0243896
0.0243903
0.0243829
0.0243675
0.0243452
0.0243171
0.0242852
0.0242515
0.0242179
0.0241862
0.0241581
0.024135
0.0241191
0.0241129
0.0241204
0.0241473
0.0242017
0.0242947
0.0244404
0.0246553
0.0249567
0.0253587
0.0258679
0.0264787
0.0271691
0.0278999
0.0286172
0.02926
0.029773
0.0301232
0.0303147
0.0303949
0.0304395
0.030518
0.0306565
0.0308258
0.030968
0.0310442
0.0310644
0.0310735
0.0311068
0.0311571
0.0311857
0.0311635
0.0310999
0.0310318
0.0309903
0.0309796
0.0309847
0.0309909
0.0309966
0.0310108
0.0310413
0.0310843
0.0311244
0.0311447
0.0311368
0.0311024
0.0310478
0.0309781
0.0308969
0.0308093
0.0307233
0.0306488
0.0305918
0.0305519
0.0305239
0.0305016
0.0304812
0.030463
0.0304489
0.0304419
0.0304453
0.0304632
0.0304984
0.0305511
0.030618
0.0306932
0.03077
0.0308418
0.0309029
0.0309489
0.0309774
0.0309887
0.0309853
0.0309711
0.03095
0.0309262
0.0309035
0.0308847
0.0308719
0.0308655
0.0308656
0.0308714
0.0308817
0.0308957
0.0309126
0.0309324
0.0309553
0.030982
0.0310131
0.0310489
0.031089
0.0311326
0.0311778
0.0312223
0.031264
0.031301
0.031332
0.0313566
0.0313752
0.0313882
0.0313963
0.0314003
0.0314007
0.0313984
0.0313939
0.0313878
0.0313808
0.0313732
0.0313655
0.0313579
0.0313504
0.0313425
0.0313334
0.0313223
0.0313076
0.0312885
0.0312647
0.031236
0.031203
0.0311667
0.0311293
0.0310919
0.0310567
0.0310258
0.0309999
0.0309793
0.0309646
0.0309568
0.0309567
0.0309567
0.04
0.024772
0.0252489
0.0264262
0.0271478
0.0269539
0.0265351
0.0258302
0.0261059
0.0264457
0.0258859
0.0251792
0.025278
0.0254297
0.0250415
0.0246475
0.0246221
0.0245758
0.0243196
0.0241397
0.0240926
0.0240061
0.0238811
0.0238517
0.0238654
0.0238562
0.0238595
0.0239126
0.0239546
0.0239742
0.0240006
0.0240369
0.0240513
0.0240584
0.0240742
0.0240912
0.0240986
0.0241117
0.0241326
0.0241523
0.0241714
0.0241969
0.0242259
0.0242517
0.0242819
0.0243119
0.0243459
0.0243727
0.0244103
0.0244354
0.0244756
0.0244949
0.0245415
0.0245535
0.0246091
0.0246141
0.0246831
0.0246811
0.0247691
0.0247618
0.02487
0.0248615
0.024991
0.0249819
0.0251302
0.0251266
0.0252864
0.02529
0.0254587
0.0254725
0.0256408
0.02567
0.0258366
0.0258792
0.026042
0.0261038
0.0262594
0.0263359
0.0264896
0.0265808
0.026726
0.0268305
0.0269745
0.0270838
0.0272201
0.0273376
0.0274686
0.0275807
0.0277038
0.0278161
0.0279266
0.0280254
0.028126
0.0282153
0.0282955
0.0283674
0.0284342
0.0284876
0.0285318
0.028569
0.0285962
0.0286119
0.0286215
0.0286224
0.0286128
0.0285966
0.0285742
0.0285409
0.0285008
0.0284555
0.0284009
0.0283385
0.0282732
0.0282008
0.0281211
0.0280393
0.0279539
0.0278615
0.0277668
0.0276712
0.0275706
0.027467
0.0273643
0.0272605
0.0271549
0.0270514
0.0269509
0.0268515
0.0267542
0.0266606
0.0265701
0.0264809
0.0263934
0.0263082
0.0262245
0.0261405
0.0260573
0.0259765
0.0258972
0.0258187
0.0257438
0.0256734
0.0256054
0.0255399
0.0254789
0.0254213
0.0253652
0.0253114
0.0252616
0.0252145
0.0251695
0.0251281
0.0250908
0.0250565
0.0250244
0.0249952
0.0249691
0.0249445
0.0249211
0.0249001
0.0248811
0.0248631
0.0248468
0.0248328
0.0248201
0.0248085
0.0247985
0.0247897
0.0247817
0.0247746
0.0247688
0.0247639
0.02476
0.0247576
0.0247569
0.0247575
0.0247597
0.0247635
0.0247689
0.0247755
0.0247833
0.0247921
0.0248015
0.0248113
0.024821
0.0248305
0.0248392
0.0248467
0.0248529
0.0248577
0.0248609
0.0248626
0.0248627
0.0248612
0.0248581
0.0248532
0.0248466
0.024838
0.0248271
0.0248135
0.0247968
0.0247769
0.024754
0.0247284
0.024701
0.0246727
0.0246447
0.024618
0.0245936
0.0245722
0.0245544
0.0245404
0.02453
0.0245231
0.0245192
0.0245184
0.0245205
0.0245258
0.0245345
0.024547
0.0245636
0.0245842
0.0246086
0.0246367
0.0246681
0.0247025
0.0247395
0.0247788
0.0248199
0.0248621
0.0249046
0.0249464
0.0249862
0.0250229
0.0250549
0.0250812
0.0251006
0.0251126
0.0251172
0.0251149
0.0251068
0.0250945
0.0250799
0.0250648
0.0250512
0.0250407
0.0250343
0.0250328
0.0250365
0.0250452
0.0250584
0.0250751
0.0250943
0.0251145
0.025134
0.0251513
0.0251647
0.0251729
0.0251745
0.0251687
0.0251553
0.0251343
0.0251066
0.0250737
0.0250374
0.0249998
0.0249627
0.0249279
0.0248965
0.0248698
0.0248494
0.0248378
0.0248391
0.0248595
0.0249074
0.0249941
0.025134
0.0253435
0.0256397
0.026037
0.0265423
0.0271501
0.0278387
0.0285681
0.0292834
0.0299222
0.0304274
0.0307647
0.0309392
0.0310008
0.0310302
0.0311007
0.0312394
0.0314124
0.0315549
0.0316226
0.0316259
0.0316153
0.0316324
0.0316722
0.0316932
0.0316631
0.0315903
0.0315138
0.0314665
0.0314522
0.0314533
0.0314528
0.0314485
0.0314503
0.0314684
0.0315012
0.0315347
0.0315522
0.0315457
0.0315177
0.0314744
0.0314202
0.0313569
0.0312867
0.031215
0.0311493
0.0310952
0.0310533
0.0310199
0.0309908
0.030964
0.0309402
0.0309216
0.0309101
0.0309088
0.0309211
0.0309499
0.030996
0.0310565
0.0311258
0.0311971
0.0312633
0.0313181
0.0313565
0.0313759
0.0313764
0.0313606
0.0313324
0.0312959
0.0312551
0.0312137
0.0311752
0.0311419
0.0311155
0.0310966
0.0310849
0.0310799
0.031081
0.0310877
0.0311001
0.0311184
0.0311432
0.0311745
0.0312121
0.031255
0.0313013
0.0313486
0.031394
0.0314349
0.0314694
0.0314969
0.0315173
0.0315316
0.0315408
0.031546
0.031548
0.0315471
0.0315437
0.0315379
0.0315297
0.0315194
0.0315072
0.0314939
0.0314801
0.0314663
0.0314528
0.0314388
0.0314238
0.0314065
0.0313859
0.0313609
0.0313314
0.0312975
0.0312596
0.0312195
0.0311795
0.0311412
0.0311064
0.0310772
0.0310548
0.0310391
0.0310312
0.0310318
0.0310318
0.04
0.0247983
0.0254811
0.0259392
0.0260918
0.0261076
0.0262271
0.0266017
0.0268578
0.0262056
0.0258848
0.0262924
0.0263938
0.0258323
0.0255816
0.0257608
0.0256949
0.0253463
0.0252026
0.0252131
0.0250725
0.0248803
0.0248212
0.0248006
0.0247206
0.0246834
0.0247185
0.0247453
0.0247492
0.0247879
0.0248391
0.0248644
0.0248816
0.0249168
0.0249454
0.0249603
0.0249809
0.0250113
0.0250342
0.0250553
0.0250843
0.0251147
0.0251404
0.0251681
0.0252006
0.0252295
0.0252591
0.0252887
0.025323
0.0253487
0.0253846
0.0254082
0.0254487
0.0254652
0.0255147
0.0255242
0.0255864
0.025589
0.0256701
0.0256654
0.0257699
0.0257609
0.0258876
0.0258764
0.0260253
0.0260136
0.0261771
0.026171
0.0263431
0.0263434
0.026519
0.0265326
0.0267044
0.0267341
0.0269033
0.0269498
0.0271121
0.0271795
0.0273359
0.0274171
0.0275695
0.0276676
0.0278116
0.0279181
0.0280612
0.0281744
0.0283063
0.0284225
0.0285516
0.0286623
0.028778
0.0288852
0.028991
0.0290832
0.0291723
0.0292524
0.0293249
0.0293853
0.0294382
0.0294825
0.0295179
0.0295413
0.0295574
0.0295666
0.0295651
0.0295535
0.0295374
0.0295125
0.0294758
0.0294332
0.0293855
0.029326
0.0292592
0.0291901
0.0291128
0.0290265
0.0289389
0.0288476
0.028748
0.0286455
0.028543
0.0284352
0.0283236
0.028213
0.0281025
0.0279899
0.0278787
0.0277711
0.0276648
0.0275593
0.0274568
0.0273574
0.0272587
0.0271606
0.0270651
0.0269716
0.0268784
0.0267866
0.0266989
0.0266143
0.0265317
0.0264535
0.0263809
0.0263113
0.0262441
0.0261809
0.0261213
0.0260628
0.026006
0.0259528
0.0259028
0.0258547
0.0258094
0.0257684
0.0257305
0.0256943
0.0256608
0.0256306
0.0256021
0.0255747
0.0255498
0.0255274
0.0255061
0.0254864
0.0254689
0.0254528
0.0254374
0.0254234
0.0254106
0.0253984
0.0253869
0.0253767
0.0253675
0.0253593
0.0253525
0.0253474
0.0253437
0.0253414
0.0253408
0.0253419
0.0253443
0.0253479
0.0253527
0.0253585
0.0253646
0.0253707
0.0253765
0.0253815
0.0253852
0.0253876
0.0253886
0.0253879
0.0253857
0.0253819
0.0253764
0.0253691
0.0253599
0.0253487
0.025335
0.0253183
0.0252983
0.0252749
0.0252482
0.0252187
0.0251874
0.0251552
0.0251233
0.0250928
0.0250649
0.0250403
0.0250196
0.0250031
0.0249906
0.0249816
0.0249758
0.0249728
0.0249723
0.0249744
0.0249795
0.0249879
0.0249999
0.0250157
0.0250352
0.0250581
0.025084
0.0251127
0.0251437
0.0251768
0.0252116
0.0252477
0.0252843
0.0253205
0.0253553
0.0253873
0.0254153
0.0254379
0.0254541
0.0254632
0.025465
0.02546
0.0254495
0.025435
0.0254184
0.0254017
0.0253866
0.0253748
0.0253672
0.0253645
0.0253666
0.0253734
0.025384
0.0253975
0.0254127
0.0254282
0.0254425
0.0254541
0.0254618
0.0254644
0.0254608
0.0254504
0.025433
0.0254086
0.0253782
0.025343
0.0253048
0.0252657
0.0252275
0.0251916
0.0251591
0.0251307
0.025108
0.0250935
0.0250912
0.0251077
0.0251517
0.0252348
0.0253714
0.0255781
0.0258722
0.0262682
0.0267733
0.0273825
0.028074
0.0288076
0.0295272
0.0301683
0.0306716
0.0310011
0.0311616
0.0312056
0.0312181
0.0312773
0.0314119
0.0315855
0.0317273
0.0317876
0.0317759
0.0317471
0.0317488
0.0317791
0.0317954
0.031762
0.0316859
0.0316069
0.031559
0.0315458
0.0315476
0.0315458
0.0315369
0.0315313
0.0315407
0.0315658
0.031594
0.0316095
0.0316052
0.0315839
0.0315523
0.031514
0.0314691
0.0314172
0.031361
0.0313065
0.031259
0.0312201
0.0311876
0.0311589
0.031133
0.0311111
0.0310952
0.0310867
0.0310877
0.031101
0.0311291
0.031173
0.0312303
0.0312958
0.0313628
0.0314241
0.0314729
0.0315039
0.0315145
0.0315051
0.0314787
0.0314391
0.0313905
0.0313364
0.0312809
0.0312273
0.0311789
0.0311376
0.0311046
0.0310803
0.0310644
0.0310566
0.0310568
0.0310652
0.0310821
0.0311077
0.0311419
0.0311836
0.0312314
0.0312828
0.0313347
0.0313838
0.0314273
0.0314633
0.0314914
0.031512
0.0315265
0.0315363
0.0315428
0.0315468
0.0315485
0.0315477
0.031544
0.0315371
0.0315269
0.0315137
0.0314985
0.0314821
0.0314657
0.0314499
0.0314345
0.0314187
0.0314015
0.0313817
0.0313582
0.0313302
0.0312979
0.0312617
0.0312227
0.0311832
0.0311454
0.0311111
0.0310818
0.031059
0.0310433
0.0310358
0.0310369
0.0310369
0.04
0.0254488
0.0259551
0.0255946
0.0259223
0.0262721
0.0263759
0.026336
0.0262219
0.0262699
0.0266305
0.0265064
0.0261048
0.0261119
0.0263705
0.0262148
0.0258974
0.0258712
0.0259358
0.0257651
0.0255603
0.0255145
0.0254723
0.0253417
0.0252567
0.0252586
0.0252456
0.0252188
0.0252394
0.0252852
0.0253051
0.0253254
0.0253664
0.0254024
0.0254209
0.0254476
0.0254823
0.0255087
0.0255307
0.0255617
0.0255925
0.0256172
0.0256435
0.0256739
0.0257008
0.0257256
0.0257544
0.0257822
0.0258097
0.0258353
0.0258678
0.0258905
0.0259253
0.0259446
0.0259878
0.025999
0.0260557
0.0260606
0.0261351
0.0261328
0.0262321
0.0262226
0.0263462
0.0263336
0.0264795
0.0264631
0.0266275
0.0266132
0.0267857
0.0267779
0.0269557
0.0269576
0.0271335
0.0271537
0.0273247
0.0273622
0.0275299
0.0275878
0.0277461
0.0278235
0.0279787
0.0280688
0.0282163
0.0283229
0.0284656
0.0285748
0.0287127
0.0288308
0.028959
0.0290711
0.029195
0.0293056
0.0294123
0.0295102
0.0296087
0.0296925
0.0297673
0.0298363
0.0298979
0.0299444
0.0299844
0.0300176
0.0300384
0.0300486
0.0300545
0.0300495
0.0300328
0.0300109
0.0299811
0.0299381