# vtk DataFile Version 3.0
LBM output step 1550
ASCII
DATASET STRUCTURED_POINTS
DIMENSIONS 400 100 1
ORIGIN 0 0 0
SPACING 1 1 1
POINT_DATA 40000
SCALARS velocity_magnitude double 1
LOOKUP_TABLE default
0
0
0
0
0
0
0
0
0
0
0
0
0
0
0
0
0
0
0
0
0
0
0
0
0
0
0
0
0
0
0
0
0
0
0
0
0
0
0
0
0
0
0
0
0
0
0
0
0
0
0
0
0
0
0
0
0
0
0
0
0
0
0
0
0
0
0
0
0
0
0
0
0
0
0
0
0
0
0
0
0
0
0
0
0
0
0
0
0
0
0
0
0
0
0
0
0
0
0
0
0
0
0
0
0
0
0
0
0
0
0
0
0
0
0
0
0
0
0
0
0
0
0
0
0
0
0
0
0
0
0
0
0
0
0
0
0
0
0
0
0
0
0
0
0
0
0
0
0
0
0
0
0
0
0
0
0
0
0
0
0
0
0
0
0
0
0
0
0
0
0
0
0
0
0
0
0
0
0
0
0
0
0
0
0
0
0
0
0
0
0
0
0
0
0
0
0
0
0
0
0
0
0
0
0
0
0
0
0
0
0
0
0
0
0
0
0
0
0
0
0
0
0
0
0
0
0
0
0
0
0
0
0
0
0
0
0
0
0
0
0
0
0
0
0
0
0
0
0
0
0
0
0
0
0
0
0
0
0
0
0
0
0
0
0
0
0
0
0
0
0
0
0
0
0
0
0
0
0
0
0
0
0
0
0
0
0
0
0
0
0
0
0
0
0
0
0
0
0
0
0
0
0
0
0
0
0
0
0
0
0
0
0
0
0
0
0
0
0
0
0
0
0
0
0
0
0
0
0
0
0
0
0
0
0
0
0
0
0
0
0
0
0
0
0
0
0
0
0
0
0
0
0
0
0
0
0
0
0
0
0
0
0
0
0
0
0
0
0
0
0
0
0
0
0
0
0
0
0
0
0
0
0
0
0
0
0
0
0
0
0
0
0
0
0
0
0
0
0
0
0.04
0.01751
0.0114578
0.0143708
0.017526
0.0175465
0.0142475
0.0130522
0.0129466
0.01303
0.0126599
0.0125789
0.012256
0.0120249
0.011853
0.0118208
0.0116313
0.0114823
0.0113556
0.0112701
0.0111266
0.011029
0.0109312
0.0108391
0.0107279
0.0106496
0.0105636
0.0104793
0.0103912
0.0103212
0.0102427
0.0101685
0.0100961
0.0100325
0.00996295
0.00989836
0.00983479
0.00977401
0.00970936
0.00964866
0.00958744
0.00952671
0.00946372
0.00940262
0.00933975
0.00927703
0.00921402
0.00915363
0.00909414
0.0090373
0.00898223
0.00892982
0.00887853
0.00882931
0.00878234
0.00873907
0.00869921
0.00866336
0.00863119
0.00860137
0.00857209
0.00854267
0.00851356
0.00848449
0.00845837
0.00843727
0.00842426
0.00841852
0.00842247
0.00843169
0.008445
0.00845569
0.00846473
0.00846428
0.00845862
0.00844388
0.00842844
0.00840707
0.00839243
0.0083792
0.00837842
0.00838057
0.00839995
0.0084231
0.00846169
0.00850021
0.00855461
0.00860441
0.00866503
0.00871639
0.0087779
0.00882438
0.00887695
0.00891176
0.00895278
0.00897185
0.00899603
0.00899793
0.00900574
0.00898898
0.00897898
0.00894484
0.00891794
0.00886662
0.00882474
0.00875999
0.00870631
0.00863261
0.008573
0.00849572
0.00843399
0.00835718
0.00829566
0.00821945
0.00815716
0.00808067
0.00801564
0.00793755
0.00786999
0.00779129
0.00772238
0.0076457
0.00757833
0.00750502
0.00744026
0.00737192
0.00731015
0.00724591
0.00718825
0.00712983
0.00707654
0.00702458
0.0069783
0.0069333
0.00689248
0.00685402
0.00681839
0.00678321
0.00674995
0.0067176
0.00668564
0.00665393
0.0066238
0.00659492
0.00656732
0.00654209
0.00651997
0.00650046
0.0064836
0.00647005
0.00645945
0.00645108
0.00644503
0.00644148
0.0064398
0.00643949
0.00644061
0.00644294
0.00644583
0.00644909
0.00645301
0.00645761
0.00646295
0.00646958
0.0064781
0.00648873
0.00650167
0.00651725
0.00653548
0.006556
0.0065785
0.00660262
0.00662764
0.00665272
0.00667711
0.00669996
0.0067203
0.00673733
0.00675044
0.00675911
0.00676297
0.00676199
0.00675637
0.00674647
0.00673284
0.00671622
0.00669739
0.00667704
0.00665582
0.00663426
0.00661271
0.00659138
0.00657037
0.00654973
0.0065294
0.00650937
0.00648962
0.00647023
0.00645135
0.00643327
0.00641638
0.0064012
0.00638828
0.00637823
0.00637158
0.00636874
0.00636991
0.00637505
0.00638385
0.00639567
0.00640962
0.00642461
0.00643943
0.00645283
0.00646369
0.00647109
0.00647443
0.00647347
0.00646836
0.00645962
0.00644806
0.00643474
0.00642081
0.00640743
0.00639564
0.0063863
0.00637995
0.0063768
0.00637669
0.0063791
0.0063832
0.00638795
0.00639215
0.00639464
0.0063943
0.0063902
0.00638169
0.00636842
0.00635042
0.00632807
0.00630214
0.00627369
0.00624405
0.00621475
0.00618735
0.00616337
0.00614416
0.00613077
0.0061239
0.00612382
0.00613036
0.00614295
0.00616075
0.00618278
0.00620805
0.00623571
0.006265
0.00629522
0.00632558
0.00635514
0.00638288
0.00640789
0.00642962
0.00644804
0.00646369
0.00647742
0.00649022
0.00650287
0.00651589
0.00652954
0.00654389
0.00655892
0.00657444
0.00658998
0.00660463
0.00661709
0.00662588
0.00662978
0.00662825
0.00662166
0.00661113
0.00659809
0.00658363
0.00656786
0.00654982
0.00652771
0.00649963
0.00646447
0.00642255
0.00637583
0.00632752
0.00628123
0.00623999
0.0062054
0.00617724
0.00615357
0.00613132
0.00610717
0.00607836
0.00604341
0.00600244
0.00595709
0.00591019
0.00586522
0.00582576
0.00579495
0.00577521
0.00576801
0.0057739
0.00579254
0.00582294
0.00586353
0.00591246
0.00596766
0.00602705
0.00608861
0.00615047
0.00621095
0.00626859
0.00632219
0.00637077
0.00641358
0.00645013
0.00648018
0.00650376
0.00652115
0.00653293
0.00653987
0.00654296
0.00654332
0.00654214
0.00654058
0.00653971
0.00654045
0.00654348
0.00654924
0.00655788
0.00656927
0.00658306
0.00659866
0.00661536
0.00663237
0.00664888
0.00666412
0.00667741
0.00668821
0.00669609
0.00670082
0.00670229
0.00670055
0.00669583
0.00668844
0.00667887
0.00666764
0.00665539
0.00664275
0.00663034
0.00661875
0.00660844
0.00659978
0.00659296
0.00658804
0.0065849
0.00658332
0.00658293
0.00658334
0.00658411
0.00658483
0.00658514
0.00658478
0.00658362
0.00658164
0.006579
0.00657597
0.00657295
0.00657042
0.00656886
0.00656873
0.00657037
0.00657396
0.00657954
0.00658689
0.00659568
0.00660538
0.00661544
0.0066252
0.00663412
0.00664166
0.00664746
0.0066512
0.00665277
0.00665211
0.00664922
0.00664418
0.00663704
0.00662798
0.00661694
0.00660358
0.00658758
0.00658758
0.04
0.027438
0.0298557
0.027405
0.0197617
0.0179329
0.0208278
0.0217639
0.0200578
0.0190601
0.0189782
0.0188017
0.0184121
0.0182648
0.0180418
0.017721
0.0174833
0.0173845
0.0171957
0.0169827
0.0168282
0.0167097
0.016545
0.0164004
0.0162861
0.0161707
0.0160389
0.0159324
0.0158367
0.0157358
0.0156359
0.0155553
0.0154776
0.0154
0.0153306
0.0152723
0.0152137
0.0151577
0.0151081
0.0150622
0.0150148
0.0149694
0.014926
0.0148818
0.0148357
0.0147907
0.014747
0.0147042
0.0146636
0.0146269
0.0145938
0.0145635
0.0145366
0.0145139
0.0144956
0.0144819
0.0144745
0.0144735
0.014478
0.0144865
0.0144994
0.0145143
0.0145315
0.0145517
0.0145784
0.014611
0.014654
0.0147072
0.0147713
0.0148404
0.0149167
0.0149913
0.0150637
0.0151274
0.01519
0.0152417
0.0152935
0.0153418
0.0154004
0.0154564
0.0155282
0.0156045
0.0156994
0.015792
0.015905
0.0160155
0.0161412
0.016254
0.0163831
0.0164952
0.0166162
0.0167121
0.0168194
0.0168963
0.01698
0.0170298
0.01709
0.0171119
0.0171437
0.0171365
0.0171418
0.0171051
0.0170833
0.017019
0.0169721
0.0168836
0.0168159
0.0167078
0.0166256
0.0165054
0.0164127
0.0162851
0.0161876
0.0160539
0.0159494
0.0158128
0.0157024
0.0155593
0.0154445
0.0153018
0.0151829
0.0150415
0.014926
0.0147902
0.0146765
0.0145492
0.0144417
0.0143216
0.0142195
0.0141107
0.0140166
0.0139179
0.0138336
0.0137481
0.013673
0.0135977
0.0135319
0.0134661
0.0134059
0.0133466
0.0132925
0.013239
0.0131892
0.0131423
0.0130997
0.0130599
0.0130248
0.0129943
0.0129682
0.0129457
0.0129277
0.0129137
0.0129028
0.0128948
0.0128901
0.0128879
0.0128876
0.012889
0.0128922
0.0128965
0.0129018
0.0129083
0.0129164
0.012926
0.0129376
0.0129516
0.0129681
0.0129871
0.0130085
0.0130322
0.0130576
0.0130842
0.0131113
0.0131382
0.013164
0.0131876
0.0132084
0.0132254
0.0132378
0.0132451
0.0132471
0.0132436
0.0132347
0.0132209
0.0132028
0.0131812
0.0131569
0.0131309
0.0131039
0.0130765
0.0130491
0.0130222
0.0129959
0.0129701
0.0129451
0.0129206
0.0128969
0.0128739
0.0128519
0.0128312
0.0128121
0.0127952
0.0127811
0.0127703
0.0127633
0.0127604
0.0127618
0.0127675
0.012777
0.0127896
0.0128045
0.0128204
0.0128363
0.0128508
0.0128629
0.0128716
0.0128764
0.0128771
0.0128739
0.0128671
0.0128577
0.0128466
0.0128349
0.0128236
0.0128138
0.0128061
0.0128011
0.012799
0.0127996
0.0128023
0.0128065
0.012811
0.0128148
0.0128167
0.0128158
0.0128111
0.0128021
0.0127885
0.0127702
0.0127478
0.0127221
0.012694
0.0126651
0.0126368
0.0126107
0.0125884
0.0125712
0.0125601
0.0125558
0.0125584
0.0125679
0.0125834
0.0126042
0.0126292
0.0126573
0.0126877
0.0127195
0.0127519
0.0127841
0.012815
0.0128438
0.0128695
0.0128919
0.0129108
0.0129268
0.0129408
0.0129538
0.0129664
0.0129793
0.0129926
0.0130063
0.0130204
0.0130345
0.013048
0.0130598
0.0130687
0.0130733
0.0130724
0.0130655
0.0130532
0.0130365
0.0130168
0.0129953
0.012972
0.0129462
0.0129163
0.0128807
0.0128387
0.0127907
0.0127388
0.0126863
0.0126366
0.0125926
0.0125558
0.0125258
0.0125009
0.0124779
0.0124538
0.0124261
0.0123933
0.012356
0.0123158
0.0122757
0.0122393
0.0122101
0.012191
0.0121844
0.0121916
0.0122127
0.0122472
0.0122937
0.0123504
0.0124152
0.0124856
0.0125594
0.0126344
0.0127087
0.0127803
0.012848
0.0129104
0.0129666
0.013016
0.0130583
0.0130932
0.013121
0.013142
0.013157
0.0131669
0.0131727
0.0131756
0.0131769
0.0131778
0.0131793
0.0131824
0.0131877
0.0131957
0.0132064
0.0132196
0.0132351
0.0132521
0.01327
0.013288
0.0133052
0.0133208
0.0133343
0.0133451
0.0133527
0.013357
0.0133579
0.0133556
0.0133502
0.0133422
0.013332
0.0133203
0.0133077
0.0132949
0.0132825
0.013271
0.0132611
0.0132529
0.0132467
0.0132427
0.0132405
0.0132402
0.0132412
0.0132432
0.0132457
0.0132484
0.0132509
0.0132528
0.0132542
0.0132549
0.0132551
0.013255
0.013255
0.0132557
0.0132573
0.0132604
0.0132652
0.0132718
0.0132802
0.0132901
0.0133011
0.0133126
0.0133239
0.0133345
0.0133437
0.013351
0.013356
0.0133585
0.0133583
0.0133556
0.0133503
0.0133426
0.0133327
0.0133205
0.0133064
0.0132906
0.0132732
0.0132732
0.04
0.0277439
0.0263486
0.023841
0.0249755
0.0269944
0.0260945
0.0242374
0.024217
0.0247274
0.0242107
0.0234713
0.0232068
0.0230662
0.0227014
0.0224148
0.0222189
0.0219861
0.0217162
0.0215441
0.0213792
0.0211823
0.0209949
0.0208603
0.0207134
0.0205609
0.0204281
0.0203168
0.0201947
0.0200817
0.0199857
0.0198986
0.0198101
0.0197363
0.0196744
0.0196175
0.0195646
0.0195235
0.019488
0.0194548
0.0194257
0.0194021
0.0193785
0.0193549
0.0193324
0.0193111
0.0192894
0.0192695
0.0192527
0.0192395
0.0192295
0.0192235
0.0192218
0.0192248
0.0192323
0.0192456
0.0192663
0.0192936
0.019327
0.0193663
0.019411
0.0194581
0.0195088
0.0195643
0.0196258
0.0196938
0.0197734
0.0198634
0.0199639
0.0200716
0.0201873
0.0203016
0.0204154
0.0205232
0.0206288
0.0207243
0.0208221
0.0209168
0.0210187
0.02112
0.0212388
0.0213599
0.0214971
0.0216353
0.0217943
0.0219469
0.0221141
0.0222715
0.0224438
0.0225948
0.0227558
0.0228926
0.0230386
0.0231501
0.02327
0.0233537
0.0234464
0.0234957
0.0235565
0.023573
0.0236023
0.0235819
0.0235794
0.0235263
0.0234926
0.023407
0.0233488
0.0232376
0.0231571
0.023027
0.0229338
0.0227879
0.0226828
0.0225274
0.0224119
0.022244
0.0221199
0.021944
0.0218098
0.0216286
0.0214914
0.0213091
0.0211703
0.0209937
0.0208576
0.0206869
0.0205552
0.0203947
0.0202681
0.0201183
0.0200005
0.0198648
0.0197561
0.0196352
0.0195379
0.0194312
0.019343
0.0192489
0.0191694
0.0190852
0.0190125
0.0189383
0.0188731
0.0188078
0.018751
0.0186968
0.0186497
0.0186061
0.0185695
0.0185368
0.0185094
0.0184857
0.018467
0.0184514
0.0184394
0.0184303
0.0184242
0.01842
0.0184177
0.018417
0.0184178
0.0184198
0.0184233
0.0184287
0.0184362
0.0184459
0.0184583
0.0184734
0.0184911
0.0185111
0.0185332
0.0185568
0.0185812
0.0186055
0.0186292
0.0186511
0.0186703
0.0186862
0.0186979
0.0187049
0.0187069
0.0187036
0.0186953
0.0186823
0.0186651
0.0186446
0.0186215
0.0185967
0.0185709
0.0185447
0.0185185
0.0184927
0.0184674
0.0184429
0.018419
0.018396
0.0183739
0.0183527
0.0183328
0.0183142
0.0182975
0.0182829
0.018271
0.018262
0.0182564
0.0182545
0.0182562
0.0182615
0.0182701
0.0182813
0.0182944
0.0183086
0.0183227
0.0183358
0.0183471
0.0183558
0.0183614
0.0183638
0.018363
0.0183593
0.0183534
0.0183459
0.0183377
0.0183295
0.0183221
0.0183163
0.0183122
0.0183103
0.0183104
0.0183121
0.0183149
0.018318
0.0183207
0.018322
0.0183211
0.0183173
0.0183099
0.0182988
0.0182837
0.0182651
0.0182436
0.0182199
0.0181953
0.018171
0.0181485
0.0181291
0.018114
0.0181042
0.0181002
0.0181024
0.0181106
0.0181243
0.0181428
0.0181654
0.018191
0.0182188
0.0182482
0.0182783
0.0183083
0.0183374
0.0183648
0.0183897
0.0184118
0.018431
0.0184479
0.018463
0.0184772
0.0184911
0.0185053
0.01852
0.0185352
0.0185507
0.0185662
0.0185811
0.0185944
0.0186048
0.0186112
0.0186125
0.0186084
0.0185993
0.018586
0.0185698
0.0185516
0.0185315
0.0185091
0.0184828
0.0184514
0.0184143
0.0183717
0.0183256
0.0182787
0.0182342
0.0181948
0.0181619
0.0181353
0.0181136
0.0180939
0.0180733
0.0180496
0.0180214
0.0179887
0.0179533
0.0179178
0.0178854
0.0178595
0.0178431
0.0178384
0.0178467
0.0178684
0.017903
0.0179492
0.0180055
0.0180698
0.0181397
0.0182132
0.018288
0.0183623
0.0184343
0.0185025
0.0185658
0.0186231
0.018674
0.0187178
0.0187545
0.0187843
0.0188075
0.0188247
0.0188368
0.0188448
0.0188498
0.018853
0.0188556
0.0188585
0.0188627
0.0188689
0.0188773
0.0188884
0.0189019
0.0189176
0.0189349
0.0189531
0.0189716
0.0189894
0.0190059
0.0190202
0.019032
0.0190407
0.0190461
0.0190481
0.019047
0.0190428
0.0190361
0.0190274
0.0190173
0.0190063
0.0189952
0.0189845
0.0189749
0.0189667
0.0189602
0.0189558
0.0189533
0.0189526
0.0189536
0.0189558
0.0189589
0.0189625
0.0189662
0.0189696
0.0189726
0.0189751
0.0189771
0.0189787
0.0189801
0.0189819
0.0189844
0.0189879
0.018993
0.0189997
0.0190083
0.0190185
0.0190303
0.0190431
0.0190563
0.0190692
0.0190813
0.0190919
0.0191005
0.0191067
0.0191101
0.0191108
0.0191086
0.0191036
0.0190961
0.0190862
0.019074
0.0190597
0.0190436
0.0190257
0.0190257
0.04
0.0294792
0.0308169
0.0311895
0.0312886
0.0288731
0.0272063
0.028114
0.028949
0.0278401
0.026793
0.0268815
0.0269353
0.0264061
0.0259583
0.0258443
0.025624
0.0252984
0.0250786
0.024931
0.0246958
0.0244791
0.0243293
0.0241806
0.0239929
0.0238446
0.0237235
0.0235925
0.0234559
0.0233519
0.023255
0.0231554
0.0230665
0.023
0.0229353
0.0228761
0.0228307
0.0227978
0.0227663
0.0227431
0.022729
0.0227198
0.0227107
0.0227064
0.0227041
0.0227018
0.0226995
0.0227004
0.0227034
0.0227092
0.0227184
0.0227321
0.02275
0.0227722
0.0227991
0.0228325
0.0228729
0.0229196
0.022973
0.0230337
0.0230992
0.023168
0.0232419
0.0233206
0.0234047
0.0234966
0.0235998
0.0237126
0.0238363
0.0239687
0.0241079
0.0242469
0.024387
0.0245217
0.0246527
0.0247771
0.0249037
0.0250261
0.0251553
0.0252886
0.0254362
0.0255858
0.0257532
0.0259258
0.0261137
0.0262974
0.0264977
0.0266909
0.0268927
0.0270773
0.0272728
0.0274452
0.027621
0.0277671
0.027921
0.0280383
0.0281601
0.028243
0.0283343
0.0283801
0.0284364
0.0284451
0.0284671
0.0284375
0.028427
0.028362
0.0283218
0.028227
0.0281635
0.0280431
0.0279628
0.0278235
0.0277273
0.0275712
0.0274636
0.0272896
0.0271681
0.0269818
0.0268491
0.0266501
0.0265117
0.0263094
0.0261664
0.0259642
0.0258234
0.025625
0.0254849
0.0252943
0.025159
0.0249777
0.0248481
0.0246809
0.0245602
0.0244077
0.0242961
0.0241599
0.0240574
0.0239347
0.0238402
0.0237312
0.0236439
0.0235463
0.0234676
0.023383
0.0233129
0.0232411
0.0231825
0.0231242
0.023076
0.0230302
0.0229931
0.0229582
0.0229298
0.0229046
0.0228848
0.0228672
0.0228537
0.0228428
0.0228346
0.0228279
0.0228235
0.0228208
0.0228199
0.0228209
0.0228244
0.0228304
0.0228391
0.0228507
0.0228653
0.0228825
0.0229019
0.0229231
0.0229456
0.0229683
0.0229905
0.0230113
0.0230298
0.0230451
0.0230565
0.0230635
0.0230655
0.0230624
0.0230543
0.0230417
0.0230248
0.0230046
0.0229818
0.0229573
0.0229317
0.0229057
0.0228798
0.0228542
0.0228293
0.0228052
0.022782
0.0227598
0.0227388
0.0227191
0.0227008
0.0226843
0.0226697
0.0226573
0.0226475
0.0226405
0.0226365
0.0226357
0.0226381
0.0226435
0.0226516
0.022662
0.0226741
0.022687
0.0227001
0.0227126
0.0227239
0.0227333
0.0227405
0.0227453
0.0227477
0.0227479
0.0227462
0.022743
0.0227389
0.0227345
0.0227302
0.0227266
0.0227239
0.0227223
0.0227219
0.0227225
0.0227238
0.0227253
0.0227266
0.0227269
0.0227258
0.0227225
0.0227166
0.0227079
0.0226961
0.0226815
0.0226644
0.0226455
0.0226256
0.022606
0.0225877
0.0225718
0.0225596
0.0225518
0.0225489
0.0225514
0.0225591
0.0225717
0.0225888
0.0226096
0.0226335
0.0226597
0.0226876
0.0227163
0.0227451
0.0227732
0.0228002
0.0228253
0.0228483
0.0228692
0.0228882
0.0229058
0.0229227
0.0229394
0.0229565
0.022974
0.022992
0.0230104
0.0230285
0.0230456
0.0230609
0.0230732
0.0230814
0.0230847
0.0230828
0.0230759
0.0230648
0.0230504
0.0230334
0.023014
0.0229918
0.022966
0.0229354
0.0228997
0.0228591
0.0228151
0.0227703
0.0227272
0.0226883
0.022655
0.0226273
0.022604
0.0225827
0.0225609
0.0225365
0.0225082
0.0224761
0.0224417
0.0224072
0.0223758
0.0223507
0.0223347
0.0223302
0.0223384
0.0223598
0.0223941
0.02244
0.0224961
0.0225603
0.0226304
0.0227042
0.0227796
0.0228546
0.0229275
0.0229968
0.0230613
0.02312
0.0231723
0.0232178
0.0232562
0.0232877
0.0233126
0.0233316
0.0233455
0.0233552
0.0233618
0.0233664
0.0233701
0.0233739
0.0233786
0.023385
0.0233935
0.0234044
0.0234176
0.0234329
0.0234498
0.0234678
0.0234861
0.0235038
0.0235201
0.0235344
0.023546
0.0235546
0.0235597
0.0235615
0.02356
0.0235555
0.0235485
0.0235395
0.0235291
0.0235181
0.0235069
0.0234963
0.0234868
0.0234788
0.0234725
0.0234683
0.0234659
0.0234654
0.0234665
0.0234687
0.0234719
0.0234755
0.0234792
0.0234829
0.0234862
0.0234892
0.0234919
0.0234944
0.0234972
0.0235004
0.0235045
0.0235099
0.0235168
0.0235255
0.023536
0.0235481
0.0235617
0.0235761
0.0235908
0.0236051
0.0236183
0.0236297
0.0236388
0.0236453
0.0236486
0.0236489
0.0236461
0.0236403
0.0236316
0.0236204
0.0236069
0.0235914
0.0235742
0.0235555
0.0235555
0.04
0.0306703
0.0317585
0.0304301
0.0298289
0.0301677
0.0313737
0.0308026
0.0292999
0.0290869
0.0298135
0.0295731
0.0287275
0.0284523
0.0285373
0.0282857
0.0278825
0.0277047
0.0275701
0.0273236
0.0270977
0.0269638
0.0267935
0.0265968
0.0264456
0.0263257
0.0261744
0.0260321
0.0259212
0.0258164
0.0256995
0.0256032
0.0255239
0.0254461
0.0253712
0.0253165
0.0252707
0.0252289
0.025197
0.0251802
0.0251682
0.0251619
0.0251638
0.025172
0.0251803
0.0251915
0.0252057
0.0252217
0.0252389
0.02526
0.0252847
0.0253131
0.0253451
0.0253816
0.025423
0.0254705
0.0255235
0.0255834
0.0256508
0.0257244
0.0258025
0.025886
0.0259747
0.0260671
0.0261657
0.0262732
0.0263901
0.0265164
0.0266542
0.0268005
0.0269524
0.0271063
0.027261
0.0274104
0.0275572
0.0276997
0.0278415
0.0279812
0.0281294
0.0282816
0.0284443
0.0286147
0.0288027
0.0289946
0.0291994
0.0294082
0.0296301
0.0298441
0.030066
0.030279
0.0304965
0.0306925
0.0308916
0.0310677
0.0312441
0.0313886
0.0315353
0.0316483
0.0317634
0.031838
0.0319186
0.0319569
0.0320024
0.032
0.0320125
0.0319749
0.0319552
0.031884
0.0318421
0.0317434
0.0316795
0.0315595
0.0314816
0.0313376
0.0312442
0.0310822
0.0309727
0.0307888
0.0306685
0.0304697
0.0303381
0.0301297
0.0299953
0.0297812
0.0296441
0.0294308
0.0292942
0.0290826
0.0289475
0.0287436
0.0286123
0.0284184
0.0282935
0.0281144
0.0279963
0.0278316
0.0277213
0.0275719
0.0274675
0.0273322
0.0272352
0.0271142
0.027024
0.026918
0.0268379
0.0267469
0.0266768
0.0266019
0.0265436
0.0264823
0.0264344
0.0263865
0.0263484
0.0263109
0.0262815
0.026254
0.026232
0.0262117
0.026196
0.026182
0.0261707
0.0261611
0.0261544
0.0261496
0.0261473
0.0261478
0.0261516
0.0261581
0.0261677
0.0261803
0.0261956
0.0262128
0.0262314
0.0262509
0.0262701
0.0262881
0.0263042
0.0263175
0.026327
0.0263323
0.0263329
0.0263287
0.0263195
0.0263058
0.0262882
0.0262672
0.0262438
0.0262188
0.0261928
0.0261665
0.0261404
0.0261149
0.0260901
0.0260663
0.0260435
0.0260221
0.026002
0.0259834
0.0259666
0.0259516
0.0259387
0.0259281
0.0259199
0.0259143
0.0259115
0.0259113
0.0259139
0.025919
0.0259264
0.0259357
0.0259464
0.0259581
0.0259701
0.0259819
0.0259931
0.0260031
0.0260118
0.026019
0.0260245
0.0260284
0.0260309
0.0260321
0.0260322
0.0260316
0.0260304
0.0260291
0.0260278
0.0260266
0.0260258
0.0260253
0.026025
0.0260249
0.0260245
0.0260237
0.0260221
0.0260192
0.0260147
0.0260084
0.026
0.0259895
0.0259772
0.0259634
0.0259488
0.0259342
0.0259205
0.0259085
0.0258993
0.0258933
0.0258913
0.0258935
0.0258999
0.0259103
0.0259245
0.0259421
0.0259625
0.0259853
0.0260097
0.026035
0.0260606
0.0260859
0.0261103
0.0261337
0.0261557
0.0261763
0.0261958
0.0262143
0.0262323
0.0262503
0.0262686
0.0262874
0.0263068
0.0263263
0.0263453
0.0263632
0.0263788
0.0263911
0.0263994
0.0264029
0.0264014
0.0263951
0.0263846
0.0263704
0.0263532
0.0263331
0.02631
0.0262832
0.0262522
0.0262168
0.0261774
0.0261351
0.026092
0.0260503
0.0260118
0.025978
0.0259488
0.0259235
0.0259001
0.0258766
0.0258512
0.0258227
0.0257912
0.0257579
0.0257249
0.025695
0.0256711
0.0256561
0.0256521
0.0256603
0.0256815
0.0257152
0.0257605
0.0258157
0.0258791
0.0259484
0.0260216
0.0260964
0.026171
0.0262437
0.0263129
0.0263774
0.0264364
0.026489
0.0265349
0.0265739
0.0266061
0.0266319
0.0266518
0.0266666
0.0266771
0.0266845
0.0266897
0.0266937
0.0266974
0.0267018
0.0267074
0.0267149
0.0267245
0.0267362
0.0267499
0.0267653
0.0267817
0.0267984
0.0268147
0.0268297
0.0268426
0.0268529
0.02686
0.0268638
0.0268641
0.0268612
0.0268553
0.0268469
0.0268367
0.0268252
0.0268131
0.0268011
0.0267898
0.0267797
0.0267711
0.0267644
0.0267597
0.0267569
0.0267559
0.0267564
0.0267581
0.0267607
0.0267637
0.026767
0.0267703
0.0267734
0.0267764
0.0267793
0.0267823
0.0267858
0.0267899
0.0267951
0.0268017
0.0268099
0.0268199
0.0268316
0.0268449
0.0268594
0.0268746
0.0268899
0.0269046
0.0269179
0.0269293
0.0269381
0.026944
0.0269466
0.0269458
0.0269417
0.0269346
0.0269244
0.0269118
0.0268967
0.02688
0.0268617
0.0268423
0.0268423
0.04
0.0286712
0.0291461
0.0304344
0.0312686
0.0312023
0.0309552
0.0304174
0.030798
0.0312309
0.0307357
0.0300214
0.0301314
0.0303485
0.0299973
0.0295573
0.0295014
0.0294707
0.0292125
0.0289768
0.0288776
0.0287463
0.028547
0.0284032
0.0282958
0.0281542
0.028006
0.0279011
0.0277976
0.027678
0.0275717
0.0274899
0.0274027
0.0273161
0.0272465
0.0271894
0.027131
0.0270833
0.0270509
0.0270272
0.0270087
0.0270036
0.0270084
0.0270179
0.0270319
0.0270527
0.0270758
0.0271008
0.027129
0.0271612
0.0271961
0.0272349
0.0272773
0.0273238
0.0273749
0.0274309
0.0274919
0.0275601
0.0276349
0.0277148
0.0278005
0.0278924
0.0279879
0.0280875
0.0281946
0.0283091
0.0284314
0.0285642
0.0287079
0.0288587
0.0290157
0.0291761
0.0293361
0.0294926
0.0296471
0.0297971
0.0299459
0.030096
0.0302521
0.0304117
0.0305835
0.0307662
0.0309612
0.0311625
0.0313797
0.0316026
0.0318323
0.0320601
0.0322974
0.0325265
0.0327542
0.0329687
0.0331852
0.0333803
0.0335699
0.0337371
0.0339027
0.0340372
0.0341685
0.0342694
0.0343687
0.0344301
0.0344947
0.0345195
0.0345489
0.0345363
0.034537
0.0344906
0.034465
0.0343921
0.0343468
0.0342475
0.0341868
0.0340649
0.0339859
0.0338405
0.0337475
0.0335767
0.0334686
0.03328
0.0331612
0.0329558
0.0328324
0.0326183
0.0324903
0.03227
0.0321416
0.0319189
0.0317891
0.0315688
0.0314414
0.0312279
0.0311037
0.0309013
0.0307826
0.0305932
0.0304788
0.030304
0.030195
0.0300344
0.0299302
0.029786
0.0296886
0.0295601
0.0294713
0.029361
0.0292818
0.0291881
0.0291202
0.029043
0.0289847
0.0289213
0.0288733
0.0288225
0.0287827
0.0287429
0.0287118
0.0286809
0.028656
0.0286325
0.0286135
0.0285956
0.0285812
0.028569
0.0285599
0.0285532
0.0285501
0.0285501
0.0285534
0.0285597
0.0285692
0.028581
0.0285945
0.028609
0.0286237
0.0286376
0.0286496
0.0286592
0.0286653
0.0286674
0.0286651
0.0286581
0.0286465
0.0286306
0.028611
0.0285884
0.0285634
0.0285371
0.02851
0.0284828
0.0284559
0.0284296
0.0284043
0.0283802
0.0283572
0.0283357
0.0283158
0.0282976
0.0282812
0.0282668
0.0282546
0.0282445
0.0282368
0.0282314
0.0282285
0.0282278
0.0282294
0.0282332
0.028239
0.0282464
0.0282551
0.0282648
0.0282752
0.0282857
0.0282961
0.0283062
0.0283156
0.0283242
0.0283318
0.0283384
0.0283439
0.0283481
0.0283512
0.0283532
0.0283541
0.028354
0.0283531
0.0283516
0.0283496
0.0283473
0.0283448
0.0283422
0.0283395
0.0283368
0.0283339
0.0283306
0.0283267
0.0283219
0.028316
0.0283089
0.0283006
0.0282914
0.0282814
0.0282713
0.0282616
0.028253
0.028246
0.0282412
0.028239
0.0282398
0.0282436
0.0282505
0.0282604
0.0282732
0.0282886
0.0283063
0.0283255
0.0283458
0.0283666
0.0283874
0.0284081
0.0284284
0.0284482
0.0284676
0.0284865
0.0285049
0.0285232
0.0285415
0.0285603
0.0285797
0.0285996
0.0286196
0.0286389
0.0286567
0.0286721
0.028684
0.0286919
0.0286953
0.028694
0.0286882
0.028678
0.0286638
0.028646
0.0286249
0.0286004
0.0285726
0.0285412
0.0285063
0.0284682
0.0284278
0.0283865
0.0283459
0.0283076
0.0282726
0.0282415
0.0282135
0.0281876
0.028162
0.0281352
0.0281064
0.0280753
0.0280429
0.0280111
0.0279823
0.0279592
0.0279444
0.02794
0.0279473
0.0279671
0.027999
0.0280423
0.0280956
0.0281569
0.0282243
0.0282956
0.0283688
0.028442
0.0285134
0.0285816
0.0286454
0.0287037
0.0287559
0.0288016
0.0288406
0.0288729
0.0288989
0.0289192
0.0289343
0.0289452
0.0289527
0.0289579
0.0289615
0.0289646
0.028968
0.0289722
0.028978
0.0289856
0.0289952
0.0290067
0.0290198
0.029034
0.0290486
0.0290628
0.0290759
0.029087
0.0290954
0.0291007
0.0291025
0.0291009
0.029096
0.0290882
0.029078
0.0290659
0.0290528
0.0290392
0.0290258
0.0290132
0.0290019
0.0289923
0.0289846
0.0289788
0.028975
0.028973
0.0289724
0.028973
0.0289745
0.0289765
0.0289788
0.0289812
0.0289836
0.0289861
0.0289888
0.0289918
0.0289955
0.029
0.0290058
0.0290129
0.0290217
0.0290322
0.0290444
0.029058
0.0290726
0.0290879
0.029103
0.0291173
0.0291302
0.0291409
0.0291489
0.0291538
0.0291553
0.0291534
0.0291481
0.0291395
0.0291281
0.0291142
0.0290981
0.0290806
0.0290618
0.0290422
0.0290422
0.04
0.0286054
0.0292967
0.02989
0.0301466
0.0302886
0.0305308
0.031036
0.0314166
0.0308518
0.0305733
0.0310489
0.0312428
0.030711
0.0304466
0.0306579
0.0306594
0.0303224
0.0301582
0.0301826
0.0300742
0.0298683
0.0297681
0.0297083
0.0295734
0.0294395
0.0293616
0.0292738
0.0291535
0.0290588
0.0289865
0.0288985
0.0288053
0.028736
0.0286721
0.028601
0.0285387
0.0284942
0.0284525
0.0284155
0.0283942
0.0283864
0.0283832
0.0283894
0.0284066
0.0284291
0.0284539
0.0284847
0.0285201
0.028558
0.0285993
0.0286454
0.0286948
0.0287479
0.0288048
0.0288658
0.0289321
0.0290043
0.0290814
0.0291645
0.0292544
0.0293484
0.029446
0.0295499
0.0296601
0.0297756
0.0298999
0.030035
0.0301783
0.0303288
0.0304866
0.0306469
0.0308068
0.0309649
0.0311204
0.031272
0.031424
0.0315772
0.0317342
0.0318984
0.0320754
0.0322607
0.0324576
0.0326675
0.0328907
0.0331168
0.0333519
0.0335924
0.033836
0.0340713
0.0343086
0.0345384
0.034762
0.0349682
0.0351706
0.0353544
0.0355295
0.0356805
0.0358256
0.0359447
0.0360568
0.0361379
0.0362159
0.0362619
0.0363056
0.0363135
0.0363286
0.0363056
0.0362928
0.0362415
0.0362123
0.0361346
0.0360856
0.0359867
0.0359225
0.0357939
0.0357139
0.0355627
0.0354655
0.0352889
0.0351836
0.0349886
0.0348741
0.0346655
0.0345485
0.034328
0.0342071
0.0339803
0.0338581
0.0336274
0.0335048
0.0332774
0.0331571
0.0329359
0.0328183
0.0326086
0.0324939
0.0322957
0.0321844
0.0320017
0.0318936
0.0317262
0.0316244
0.0314753
0.0313798
0.0312494
0.0311639
0.0310523
0.0309755
0.0308816
0.0308151
0.0307362
0.0306781
0.0306137
0.0305648
0.0305118
0.0304709
0.0304291
0.0303955
0.0303616
0.0303342
0.0303078
0.0302857
0.030265
0.0302487
0.0302346
0.0302241
0.0302167
0.0302133
0.0302129
0.0302156
0.0302211
0.0302288
0.0302375
0.0302467
0.0302553
0.0302624
0.030267
0.0302685
0.0302662
0.0302596
0.0302485
0.0302333
0.030214
0.0301912
0.0301658
0.0301385
0.03011
0.030081
0.0300522
0.0300239
0.0299965
0.0299702
0.0299451
0.0299214
0.0298992
0.0298786
0.0298597
0.0298427
0.0298277
0.0298147
0.0298039
0.0297953
0.0297888
0.0297845
0.0297823
0.0297821
0.0297838
0.0297874
0.0297925
0.0297991
0.0298067
0.0298152
0.0298242
0.0298335
0.0298429
0.0298521
0.0298611
0.0298695
0.0298772
0.029884
0.0298897
0.0298942
0.0298973
0.029899
0.0298992
0.0298981
0.0298957
0.0298923
0.0298881
0.0298833
0.0298783
0.0298733
0.0298685
0.0298639
0.0298596
0.0298555
0.0298513
0.029847
0.0298422
0.029837
0.0298313
0.0298252
0.0298188
0.0298126
0.0298067
0.0298016
0.0297976
0.029795
0.029794
0.0297948
0.0297977
0.0298029
0.0298103
0.02982
0.0298317
0.029845
0.0298594
0.0298744
0.0298899
0.0299058
0.0299221
0.0299389
0.029956
0.0299735
0.0299911
0.0300089
0.030027
0.0300457
0.0300651
0.030085
0.030105
0.0301243
0.0301417
0.0301564
0.0301676
0.0301747
0.0301776
0.030176
0.0301701
0.0301598
0.0301452
0.0301264
0.0301037
0.0300775
0.030048
0.0300156
0.0299807
0.0299435
0.0299046
0.0298648
0.0298252
0.0297868
0.0297506
0.0297171
0.0296862
0.029657
0.0296286
0.0295998
0.0295698
0.0295385
0.0295067
0.0294757
0.0294477
0.0294251
0.0294104
0.0294055
0.0294118
0.02943
0.02946
0.0295011
0.0295519
0.0296109
0.0296758
0.0297449
0.0298159
0.0298871
0.0299567
0.0300233
0.0300856
0.0301426
0.0301938
0.0302386
0.0302768
0.0303086
0.0303343
0.0303543
0.0303692
0.0303799
0.0303871
0.0303918
0.0303948
0.0303969
0.0303989
0.0304016
0.0304054
0.0304108
0.0304181
0.0304271
0.0304378
0.0304495
0.0304618
0.0304738
0.0304846
0.0304935
0.0304998
0.030503
0.0305027
0.030499
0.0304919
0.0304819
0.0304696
0.0304555
0.0304405
0.0304251
0.03041
0.0303959
0.0303833
0.0303723
0.0303633
0.0303563
0.0303513
0.030348
0.0303462
0.0303456
0.0303459
0.0303467
0.0303479
0.0303494
0.030351
0.0303529
0.0303551
0.0303579
0.0303616
0.0303662
0.0303721
0.0303795
0.0303885
0.0303991
0.0304112
0.0304245
0.0304388
0.0304534
0.0304678
0.0304813
0.0304932
0.0305028
0.0305097
0.0305133
0.0305136
0.0305104
0.0305039
0.0304943
0.0304818
0.0304672
0.0304506
0.0304329
0.0304142
0.0303954
0.0303954
0.04
0.0293475
0.0299062
0.0295921
0.029993
0.0304696
0.0306563
0.0306889
0.0306662
0.0308149
0.0312608
0.0311974
0.0308292
0.030874
0.0312021
0.0311039
0.0308016
0.0307925
0.0309186
0.0308059
0.0306235
0.0305955
0.0305923
0.0304795
0.030372
0.0303325
0.0302726
0.0301723
0.0300976
0.0300455
0.0299691
0.029886
0.0298247
0.0297661
0.0296936
0.0296286
0.0295771
0.029525
0.0294728
0.0294358
0.0294101
0.0293895
0.0293793
0.0293838
0.0293957
0.0294132
0.0294389
0.0294717
0.0295073
0.0295478
0.0295937
0.0296434
0.0296965
0.0297538
0.029814
0.029878
0.0299469
0.0300199
0.0300977
0.0301825
0.0302722
0.0303655
0.0304647
0.0305697
0.0306783
0.0307934
0.0309182
0.0310507
0.0311906
0.0313396
0.0314948
0.0316517
0.0318097
0.0319667
0.0321206
0.0322724
0.0324244
0.0325767
0.0327348
0.0329016
0.0330774
0.0332629
0.0334641
0.0336772
0.0338988
0.0341289
0.0343714
0.0346156
0.0348597
0.0351037
0.0353498
0.0355852
0.0358126
0.0360307
0.0362429
0.0364353
0.0366169
0.0367828
0.0369381
0.0370682
0.0371894