# vtk DataFile Version 3.0
LBM output step 160
ASCII
DATASET STRUCTURED_POINTS
DIMENSIONS 400 100 1
ORIGIN 0 0 0
SPACING 1 1 1
POINT_DATA 40000
SCALARS velocity_magnitude double 1
LOOKUP_TABLE default
0
0
0
0
0
0
0
0
0
0
0
0
0
0
0
0
0
0
0
0
0
0
0
0
0
0
0
0
0
0
0
0
0
0
0
0
0
0
0
0
0
0
0
0
0
0
0
0
0
0
0
0
0
0
0
0
0
0
0
0
0
0
0
0
0
0
0
0
0
0
0
0
0
0
0
0
0
0
0
0
0
0
0
0
0
0
0
0
0
0
0
0
0
0
0
0
0
0
0
0
0
0
0
0
0
0
0
0
0
0
0
0
0
0
0
0
0
0
0
0
0
0
0
0
0
0
0
0
0
0
0
0
0
0
0
0
0
0
0
0
0
0
0
0
0
0
0
0
0
0
0
0
0
0
0
0
0
0
0
0
0
0
0
0
0
0
0
0
0
0
0
0
0
0
0
0
0
0
0
0
0
0
0
0
0
0
0
0
0
0
0
0
0
0
0
0
0
0
0
0
0
0
0
0
0
0
0
0
0
0
0
0
0
0
0
0
0
0
0
0
0
0
0
0
0
0
0
0
0
0
0
0
0
0
0
0
0
0
0
0
0
0
0
0
0
0
0
0
0
0
0
0
0
0
0
0
0
0
0
0
0
0
0
0
0
0
0
0
0
0
0
0
0
0
0
0
0
0
0
0
0
0
0
0
0
0
0
0
0
0
0
0
0
0
0
0
0
0
0
0
0
0
0
0
0
0
0
0
0
0
0
0
0
0
0
0
0
0
0
0
0
0
0
0
0
0
0
0
0
0
0
0
0
0
0
0
0
0
0
0
0
0
0
0
0
0
0
0
0
0
0
0
0
0
0
0
0
0
0
0
0
0
0
0
0
0
0
0
0
0
0
0
0
0
0
0
0
0
0
0
0
0
0
0
0
0
0
0
0
0
0
0
0
0
0
0
0
0
0
0
0.04
0.0151339
0.00987494
0.017101
0.0192427
0.0191002
0.016992
0.017267
0.017615
0.0176093
0.01718
0.0169191
0.0165389
0.0161245
0.0158352
0.0155813
0.015239
0.0149214
0.0146683
0.0144464
0.0141906
0.0139941
0.0138184
0.0136667
0.013513
0.0134107
0.0133133
0.0132374
0.0131726
0.0131436
0.0131205
0.0131146
0.0131261
0.0131564
0.0131893
0.0132388
0.0132917
0.0133569
0.0134206
0.013492
0.0135701
0.0136455
0.013726
0.0138156
0.0138974
0.0139891
0.0140812
0.0141712
0.0142726
0.0143711
0.014467
0.0145791
0.0146833
0.0147882
0.0149097
0.0150166
0.0151266
0.0152706
0.0153918
0.0154939
0.015644
0.0157971
0.0159072
0.0160478
0.0162218
0.0163596
0.0165076
0.016703
0.01685
0.0169652
0.0171944
0.0174622
0.0175672
0.0176431
0.0179649
0.0183616
0.018445
0.0183678
0.0186823
0.0193797
0.0197444
0.0194422
0.0191941
0.0198689
0.0211585
0.021742
0.0208981
0.0196013
0.0197132
0.0220572
0.0252198
0.0263095
0.0234233
0.0174381
0.0109823
0.00602852
0.00298096
0.00136198
0.000584048
0.000237233
9.18083e-05
3.39707e-05
1.21716e-05
4.27379e-06
1.47858e-06
5.69743e-07
2.17575e-07
1.13666e-07
5.97364e-08
3.57522e-08
2.44596e-08
2.33221e-08
2.78473e-08
1.34111e-08
2.02021e-08
2.57909e-08
1.79951e-08
2.18247e-09
1.46581e-08
1.24222e-08
6.36201e-10
1.23323e-08
7.66522e-09
1.82692e-08
1.99814e-08
3.03709e-09
1.53532e-08
1.58535e-09
1.43934e-08
1.09503e-08
8.89293e-10
3.27072e-09
2.15632e-09
4.08434e-09
2.53416e-09
1.42974e-09
1.00868e-09
1.23824e-09
1.14803e-09
8.30795e-10
6.7591e-10
6.26779e-10
3.97796e-10
4.34751e-10
2.69768e-10
1.78347e-10
1.7079e-10
1.39249e-10
2.77603e-11
7.46872e-11
3.84377e-11
2.49368e-11
2.99355e-11
9.66758e-12
1.14557e-11
1.4616e-11
3.52179e-11
2.96297e-11
5.69268e-11
2.74816e-11
2.3203e-11
0
0
0
0
0
0
0
0
0
0
0
0
0
0
0
0
0
0
0
0
0
0
0
0
0
0
0
0
0
0
0
0
0
0
0
0
0
0
0
0
0
0
0
0
0
0
0
0
0
0
0
0
0
0
0
0
0
0
0
0
0
0
0
0
0
0
0
0
0
0
0
0
0
0
0
0
0
0
0
0
0
0
0
0
0
0
0
0
0
0
0
0
0
0
0
0
0
0
0
0
0
0
0
0
0
0
0
0
0
0
0
0
0
0
0
0
0
0
0
0
0
0
0
0
0
0
0
0
0
0
0
0
0
0
0
0
0
0
0
0
0
0
0
0
0
0
0
0
0
0
0
0
0
0
0
0
0
0
0
0
0
0
0
0
0
0
0
0
0
0
0
0
0
0
0
0
0
0
0
0
0
0
0
0
0
0
0
0
0
0
0
0
0
0
0
0
0
0
0
0
0
0
0
0
0
0
0
0
0
0
0
0
0
0
0
0
0
0
0
0
0
0
0
0
0
0
0
0
0
0
0
0
0
0
0
0
0
0
0
0.04
0.022125
0.0219121
0.0196509
0.0140065
0.0158431
0.0203333
0.021683
0.0208356
0.0207351
0.0213868
0.021372
0.0213265
0.0212502
0.0213311
0.0211236
0.021148
0.0211622
0.0211704
0.0211091
0.0211516
0.0211992
0.0212173
0.0212498
0.021314
0.0213723
0.0214172
0.0214894
0.0215692
0.0216416
0.0217127
0.0217917
0.021867
0.0219327
0.022
0.0220728
0.0221379
0.0222051
0.0222741
0.0223445
0.022417
0.0224849
0.0225597
0.0226373
0.022707
0.0227857
0.022865
0.0229388
0.023022
0.0231002
0.0231768
0.0232645
0.0233412
0.0234199
0.0235155
0.0235901
0.0236633
0.0237677
0.0238483
0.0239087
0.0240134
0.0241131
0.0241672
0.0242542
0.024368
0.0244255
0.0244895
0.0246202
0.0247003
0.0247121
0.0248193
0.0249855
0.0250001
0.0249477
0.0251036
0.0253543
0.0253224
0.0250994
0.0251955
0.0256416
0.0257954
0.0253248
0.0248722
0.0252494
0.02618
0.0264179
0.0252714
0.0236627
0.023383
0.0252513
0.027912
0.0285038
0.025099
0.0185805
0.0116546
0.00636994
0.00313357
0.00142255
0.000604896
0.000242599
9.19637e-05
3.29057e-05
1.10452e-05
3.43161e-06
9.48957e-07
2.17728e-07
2.63393e-08
6.90323e-08
1.75493e-08
2.51907e-08
2.13293e-08
2.55851e-08
8.9835e-09
1.16528e-09
1.23923e-08
1.48374e-08
1.85029e-08
1.74463e-08
1.12402e-08
2.16881e-09
1.63697e-08
1.15054e-08
5.8403e-09
4.76438e-09
1.49835e-08
1.57117e-08
2.35431e-09
9.2985e-09
4.04181e-09
8.18996e-09
8.26624e-09
3.49045e-09
3.28792e-09
1.68691e-09
3.59729e-09
2.79013e-09
1.52564e-09
1.9128e-09
1.86644e-09
1.16834e-09
1.25194e-09
1.38253e-09
7.57222e-10
7.49906e-10
9.03495e-10
5.88713e-10
4.0145e-10
5.57779e-10
3.90493e-10
2.12235e-10
3.00425e-10
1.96341e-10
1.08471e-10
1.40971e-10
7.33926e-11
9.2636e-11
3.86558e-11
6.29915e-11
2.34279e-11
2.5038e-11
2.25731e-11
0
0
0
0
0
0
0
0
0
0
0
0
0
0
0
0
0
0
0
0
0
0
0
0
0
0
0
0
0
0
0
0
0
0
0
0
0
0
0
0
0
0
0
0
0
0
0
0
0
0
0
0
0
0
0
0
0
0
0
0
0
0
0
0
0
0
0
0
0
0
0
0
0
0
0
0
0
0
0
0
0
0
0
0
0
0
0
0
0
0
0
0
0
0
0
0
0
0
0
0
0
0
0
0
0
0
0
0
0
0
0
0
0
0
0
0
0
0
0
0
0
0
0
0
0
0
0
0
0
0
0
0
0
0
0
0
0
0
0
0
0
0
0
0
0
0
0
0
0
0
0
0
0
0
0
0
0
0
0
0
0
0
0
0
0
0
0
0
0
0
0
0
0
0
0
0
0
0
0
0
0
0
0
0
0
0
0
0
0
0
0
0
0
0
0
0
0
0
0
0
0
0
0
0
0
0
0
0
0
0
0
0
0
0
0
0
0
0
0
0
0
0
0
0
0
0
0
0
0
0
0
0
0
0
0
0
0
0
0
0.04
0.0243285
0.0215937
0.0183533
0.0195857
0.0223498
0.0216802
0.0210244
0.0223522
0.0234074
0.0234651
0.0231524
0.023694
0.0238087
0.0239654
0.0239093
0.0241826
0.0241838
0.0242725
0.024341
0.0244631
0.024493
0.0245534
0.0246336
0.0246898
0.0247229
0.0247692
0.0248258
0.0248595
0.0248914
0.024929
0.0249587
0.0249773
0.0249972
0.0250188
0.025037
0.0250477
0.0250675
0.0250846
0.025097
0.0251151
0.0251303
0.0251463
0.0251631
0.0251743
0.0251949
0.0252103
0.0252181
0.025239
0.0252517
0.0252575
0.0252792
0.025288
0.0252899
0.0253137
0.0253205
0.0253133
0.0253347
0.0253441
0.0253308
0.0253491
0.0253618
0.0253355
0.0253447
0.0253744
0.0253377
0.0253095
0.0253638
0.0253688
0.0252806
0.0252786
0.0253658
0.0253185
0.0251733
0.0252121
0.0253796
0.0253058
0.0250112
0.0249741
0.0253035
0.0254346
0.0249902
0.0244843
0.0246906
0.0254711
0.0257313
0.0247343
0.0232026
0.0228034
0.024454
0.0270315
0.0278094
0.0247592
0.0185409
0.0117478
0.00647396
0.00320749
0.00146678
0.000629373
0.000255724
9.88982e-05
3.66391e-05
1.30724e-05
4.54833e-06
1.61214e-06
5.63589e-07
2.50848e-07
1.10684e-07
4.32755e-08
5.28228e-08
2.93929e-08
2.53898e-08
1.43294e-08
8.0981e-09
2.21147e-08
1.05838e-08
1.47706e-09
1.47759e-08
2.18721e-08
1.49819e-08
9.82963e-09
1.79685e-08
7.81842e-09
1.27653e-08
1.16045e-08
9.27024e-09
7.61849e-09
6.09664e-09
1.01267e-08
3.55876e-09
6.09876e-09
2.83128e-09
2.44581e-09
2.46021e-09
1.458e-09
1.11314e-09
4.17042e-10
7.96022e-10
7.2819e-10
4.58482e-10
4.96661e-10
5.53919e-10
3.56319e-10
3.06664e-10
4.44302e-10
3.17883e-10
2.20202e-10
2.82279e-10
2.87761e-10
1.24619e-10
1.64339e-10
1.66718e-10
6.066e-11
7.58131e-11
8.78296e-11
4.84866e-11
4.06405e-11
5.55447e-11
2.24576e-11
2.4618e-11
2.18188e-11
0
0
0
0
0
0
0
0
0
0
0
0
0
0
0
0
0
0
0
0
0
0
0
0
0
0
0
0
0
0
0
0
0
0
0
0
0
0
0
0
0
0
0
0
0
0
0
0
0
0
0
0
0
0
0
0
0
0
0
0
0
0
0
0
0
0
0
0
0
0
0
0
0
0
0
0
0
0
0
0
0
0
0
0
0
0
0
0
0
0
0
0
0
0
0
0
0
0
0
0
0
0
0
0
0
0
0
0
0
0
0
0
0
0
0
0
0
0
0
0
0
0
0
0
0
0
0
0
0
0
0
0
0
0
0
0
0
0
0
0
0
0
0
0
0
0
0
0
0
0
0
0
0
0
0
0
0
0
0
0
0
0
0
0
0
0
0
0
0
0
0
0
0
0
0
0
0
0
0
0
0
0
0
0
0
0
0
0
0
0
0
0
0
0
0
0
0
0
0
0
0
0
0
0
0
0
0
0
0
0
0
0
0
0
0
0
0
0
0
0
0
0
0
0
0
0
0
0
0
0
0
0
0
0
0
0
0
0
0
0.04
0.026315
0.0276917
0.0270646
0.0259915
0.0232048
0.0218626
0.0234697
0.0244409
0.0236707
0.0236237
0.0242067
0.0248098
0.0244606
0.0247051
0.0248454
0.0250644
0.0249496
0.0251178
0.0251881
0.0252243
0.0252227
0.0252996
0.0253302
0.0253226
0.0253441
0.0253735
0.0253773
0.0253668
0.0253797
0.0253841
0.025374
0.0253682
0.0253705
0.0253619
0.0253525
0.0253444
0.0253427
0.0253302
0.0253185
0.0253152
0.025306
0.0252964
0.025292
0.0252809
0.0252766
0.0252684
0.0252556
0.0252535
0.0252447
0.0252341
0.0252381
0.0252234
0.0252045
0.0252125
0.0252042
0.0251814
0.0251887
0.0251851
0.0251623
0.02517
0.0251623
0.025118
0.0251333
0.0251763
0.0251252
0.0250714
0.0251308
0.0251537
0.0250527
0.02503
0.0251431
0.0251464
0.0250016
0.0249917
0.0251431
0.0251186
0.0248846
0.0248675
0.0251888
0.0253222
0.0248892
0.0243839
0.0245974
0.0254303
0.0257832
0.0248499
0.0232804
0.0227571
0.024324
0.0269879
0.0279984
0.025154
0.0189782
0.012086
0.00667725
0.00330908
0.00151071
0.000645616
0.000260325
9.9361e-05
3.57984e-05
1.21739e-05
3.87352e-06
1.08219e-06
2.76776e-07
7.93513e-08
1.96342e-08
3.08063e-08
3.85739e-08
4.22789e-09
1.45061e-08
1.41801e-08
1.47206e-08
6.50626e-09
1.93993e-08
1.64934e-08
7.5677e-09
1.55156e-08
9.13163e-09
9.07663e-09
9.94858e-10
4.15789e-09
4.21027e-09
9.17157e-09
5.01272e-09
6.22714e-09
9.66402e-09
1.53652e-09
9.06772e-09
4.03714e-09
3.88392e-09
2.61992e-09
1.36299e-09
1.72327e-09
8.49816e-10
6.4656e-10
2.40212e-11
2.87682e-10
3.40721e-10
2.80575e-11
3.19621e-11
1.54235e-10
2.59849e-11
1.27161e-10
4.38506e-11
7.99459e-11
1.43621e-10
1.08637e-10
9.15861e-11
8.63358e-11
8.82522e-11
5.41384e-11
3.48444e-11
6.58179e-11
4.16436e-11
2.09949e-11
5.30515e-11
2.04303e-11
2.38516e-11
2.09466e-11
0
0
0
0
0
0
0
0
0
0
0
0
0
0
0
0
0
0
0
0
0
0
0
0
0
0
0
0
0
0
0
0
0
0
0
0
0
0
0
0
0
0
0
0
0
0
0
0
0
0
0
0
0
0
0
0
0
0
0
0
0
0
0
0
0
0
0
0
0
0
0
0
0
0
0
0
0
0
0
0
0
0
0
0
0
0
0
0
0
0
0
0
0
0
0
0
0
0
0
0
0
0
0
0
0
0
0
0
0
0
0
0
0
0
0
0
0
0
0
0
0
0
0
0
0
0
0
0
0
0
0
0
0
0
0
0
0
0
0
0
0
0
0
0
0
0
0
0
0
0
0
0
0
0
0
0
0
0
0
0
0
0
0
0
0
0
0
0
0
0
0
0
0
0
0
0
0
0
0
0
0
0
0
0
0
0
0
0
0
0
0
0
0
0
0
0
0
0
0
0
0
0
0
0
0
0
0
0
0
0
0
0
0
0
0
0
0
0
0
0
0
0
0
0
0
0
0
0
0
0
0
0
0
0
0
0
0
0
0
0.04
0.0265718
0.0276578
0.0262458
0.0252515
0.0248458
0.0253989
0.0246223
0.0234156
0.0236947
0.0248588
0.0246287
0.0244261
0.0244663
0.0250788
0.0248929
0.0249455
0.0249982
0.0251923
0.0251141
0.0251602
0.0252279
0.0252572
0.0252349
0.0252641
0.0252997
0.0252876
0.0252845
0.0253014
0.0253095
0.0252957
0.0252958
0.0253015
0.0252931
0.0252786
0.0252779
0.025269
0.0252593
0.0252491
0.0252434
0.0252379
0.0252262
0.0252194
0.0252157
0.0252018
0.0252002
0.0251984
0.0251876
0.0251864
0.0251795
0.0251687
0.0251756
0.0251665
0.0251518
0.0251668
0.0251665
0.0251438
0.0251474
0.0251461
0.0251337
0.0251551
0.0251555
0.0251109
0.0251281
0.0251764
0.0251223
0.0250659
0.0251464
0.0252005
0.0250994
0.0250492
0.025154
0.0251743
0.0250376
0.0250281
0.0252031
0.0252107
0.0249572
0.0248639
0.0251427
0.0253368
0.0250093
0.0245255
0.0246338
0.0253417
0.0256832
0.0248549
0.0233781
0.0228181
0.0242383
0.0267847
0.0278224
0.0251174
0.0190646
0.0122073
0.00677334
0.00336868
0.00154338
0.000662729
0.000269197
0.000103959
3.83763e-05
1.35787e-05
4.6823e-06
1.609e-06
5.67857e-07
2.19646e-07
9.22701e-08
6.49487e-08
2.99394e-08
1.07508e-08
1.86149e-08
1.25373e-08
1.34374e-08
1.03774e-08
1.41522e-08
2.19199e-08
1.63392e-08
1.91651e-08
1.56162e-08
9.43093e-09
1.37609e-08
6.3233e-09
4.14811e-09
7.31524e-09
1.17467e-08
3.79171e-09
1.06846e-08
1.0938e-08
3.7537e-09
8.88383e-09
1.17564e-09
4.36108e-09
2.3743e-09
1.56698e-09
7.15222e-10
4.73644e-10
4.63813e-10
2.81369e-10
3.2553e-10
1.6892e-10
1.01758e-10
1.6008e-10
7.62502e-11
1.26904e-10
5.74195e-11
7.86816e-12
1.65016e-10
7.14809e-11
5.68708e-11
1.07906e-10
5.42084e-11
5.17459e-11
3.75964e-11
4.97365e-11
3.77601e-11
1.93098e-11
5.00188e-11
1.79867e-11
2.27615e-11
1.99641e-11
0
0
0
0
0
0
0
0
0
0
0
0
0
0
0
0
0
0
0
0
0
0
0
0
0
0
0
0
0
0
0
0
0
0
0
0
0
0
0
0
0
0
0
0
0
0
0
0
0
0
0
0
0
0
0
0
0
0
0
0
0
0
0
0
0
0
0
0
0
0
0
0
0
0
0
0
0
0
0
0
0
0
0
0
0
0
0
0
0
0
0
0
0
0
0
0
0
0
0
0
0
0
0
0
0
0
0
0
0
0
0
0
0
0
0
0
0
0
0
0
0
0
0
0
0
0
0
0
0
0
0
0
0
0
0
0
0
0
0
0
0
0
0
0
0
0
0
0
0
0
0
0
0
0
0
0
0
0
0
0
0
0
0
0
0
0
0
0
0
0
0
0
0
0
0
0
0
0
0
0
0
0
0
0
0
0
0
0
0
0
0
0
0
0
0
0
0
0
0
0
0
0
0
0
0
0
0
0
0
0
0
0
0
0
0
0
0
0
0
0
0
0
0
0
0
0
0
0
0
0
0
0
0
0
0
0
0
0
0
0.04
0.0245355
0.0249641
0.0259679
0.026485
0.0259538
0.0251525
0.0242047
0.0245722
0.0249363
0.0246727
0.0241084
0.0247768
0.0249393
0.0249564
0.0246676
0.0250536
0.0250924
0.0250874
0.0250415
0.0251915
0.0251998
0.025179
0.0252091
0.0252585
0.0252499
0.0252401
0.0252697
0.025279
0.0252662
0.0252657
0.0252768
0.0252707
0.0252591
0.025259
0.0252611
0.0252476
0.0252433
0.0252406
0.0252327
0.0252259
0.0252196
0.0252176
0.025214
0.0252018
0.0252024
0.0251995
0.0251877
0.0251889
0.0251845
0.0251759
0.025185
0.0251756
0.0251571
0.0251682
0.0251687
0.0251529
0.0251605
0.0251542
0.0251372
0.0251605
0.0251571
0.0251016
0.0251223
0.0251885
0.0251352
0.025057
0.0251262
0.025187
0.0250848
0.0250259
0.0251393
0.0251754
0.0250269
0.0249846
0.0251465
0.0251676
0.0249244
0.0248291
0.0251147
0.0253213
0.0249728
0.0244297
0.0245045
0.0252624
0.0257055
0.0249293
0.0233884
0.022689
0.0240206
0.0266368
0.0278831
0.0253838
0.0194074
0.0124956
0.00695835
0.00346716
0.00158928
0.000681695
0.000275971
0.000105794
3.84513e-05
1.3203e-05
4.24364e-06
1.27565e-06
3.25288e-07
8.77288e-08
3.04138e-08
4.6549e-08
9.31e-09
2.55083e-08
1.39668e-08
9.2214e-09
1.62119e-08
8.13054e-09
1.92024e-08
1.08987e-08
6.77443e-09
1.43461e-08
8.55843e-09
1.17277e-09
8.43293e-09
5.29711e-09
4.31522e-09
2.48525e-09
3.09978e-09
9.37438e-09
5.66161e-09
6.11215e-09
8.00882e-09
1.37719e-09
5.81833e-09
1.90596e-09
2.50491e-09
8.77179e-10
8.04906e-10
4.67096e-10
4.47598e-10
1.72659e-10
2.40666e-11
1.41559e-10
9.99148e-11
6.79784e-11
4.89263e-11
5.94342e-11
1.02969e-10
1.15651e-11
1.37127e-10
1.03006e-10
3.464e-11
1.13749e-10
5.70144e-11
4.38756e-11
4.3899e-11
4.55604e-11
3.43996e-11
1.73869e-11
4.65159e-11
1.51782e-11
2.13748e-11
1.88797e-11
0
0
0
0
0
0
0
0
0
0
0
0
0
0
0
0
0
0
0
0
0
0
0
0
0
0
0
0
0
0
0
0
0
0
0
0
0
0
0
0
0
0
0
0
0
0
0
0
0
0
0
0
0
0
0
0
0
0
0
0
0
0
0
0
0
0
0
0
0
0
0
0
0
0
0
0
0
0
0
0
0
0
0
0
0
0
0
0
0
0
0
0
0
0
0
0
0
0
0
0
0
0
0
0
0
0
0
0
0
0
0
0
0
0
0
0
0
0
0
0
0
0
0
0
0
0
0
0
0
0
0
0
0
0
0
0
0
0
0
0
0
0
0
0
0
0
0
0
0
0
0
0
0
0
0
0
0
0
0
0
0
0
0
0
0
0
0
0
0
0
0
0
0
0
0
0
0
0
0
0
0
0
0
0
0
0
0
0
0
0
0
0
0
0
0
0
0
0
0
0
0
0
0
0
0
0
0
0
0
0
0
0
0
0
0
0
0
0
0
0
0
0
0
0
0
0
0
0
0
0
0
0
0
0
0
0
0
0
0
0.04
0.0248345
0.0255533
0.0257442
0.0255803
0.0253151
0.0251459
0.0251985
0.0252618
0.024437
0.0243955
0.0247776
0.0251857
0.0245571
0.0247526
0.024958
0.0251713
0.0248804
0.0250174
0.0251441
0.025172
0.0250918
0.0251704
0.0252286
0.025205
0.0251984
0.025243
0.0252559
0.0252345
0.0252452
0.0252655
0.0252576
0.0252474
0.0252552
0.0252571
0.025247
0.0252384
0.0252437
0.0252372
0.0252251
0.0252247
0.0252203
0.025213
0.02521
0.0252021
0.0252015
0.0251959
0.0251859
0.02519
0.0251828
0.0251699
0.0251816
0.0251765
0.0251561
0.025164
0.0251643
0.02515
0.0251598
0.0251522
0.0251302
0.0251556
0.0251599
0.0251022
0.0251138
0.025182
0.0251388
0.0250612
0.0251231
0.0251807
0.0250802
0.0250288
0.0251547
0.0251899
0.0250178
0.0249591
0.0251441
0.0252062
0.0249648
0.0248235
0.0250757
0.0253057
0.0250042
0.0244698
0.0245055
0.0252294
0.0256843
0.0249435
0.0234071
0.0226582
0.0239196
0.0265118
0.0278222
0.0254358
0.0195343
0.0126229
0.00704602
0.00351586
0.00161327
0.000692953
0.000281274
0.000108462
3.98227e-05
1.4014e-05
4.76895e-06
1.57548e-06
5.5154e-07
1.91042e-07
1.02057e-07
4.16423e-08
1.17467e-08
3.44352e-08
9.8078e-09
5.93462e-09
2.03247e-08
1.53722e-08
7.55399e-09
1.87487e-08
1.23808e-08
7.75338e-09
1.28425e-08
9.7854e-09
4.45892e-09
3.99894e-09
5.64284e-09
7.30216e-09
1.16488e-08
2.07943e-09
1.31589e-08
7.83094e-09
6.8478e-09
8.45896e-09
1.81341e-09
4.73553e-09
7.90796e-10
1.83117e-09
8.60011e-10
5.20929e-10
2.89843e-10
2.14984e-10
6.42166e-11
6.78787e-11
1.17123e-10
7.65174e-11
4.95854e-11
3.7072e-11
1.04456e-10
4.41927e-11
7.60205e-11
1.05034e-10
3.50405e-11
9.83542e-11
5.91176e-11
4.10057e-11
4.36986e-11
4.156e-11
3.11642e-11
1.52824e-11
4.26172e-11
1.20657e-11
1.97227e-11
1.77023e-11
0
0
0
0
0
0
0
0
0
0
0
0
0
0
0
0
0
0
0
0
0
0
0
0
0
0
0
0
0
0
0
0
0
0
0
0
0
0
0
0
0
0
0
0
0
0
0
0
0
0
0
0
0
0
0
0
0
0
0
0
0
0
0
0
0
0
0
0
0
0
0
0
0
0
0
0
0
0
0
0
0
0
0
0
0
0
0
0
0
0
0
0
0
0
0
0
0
0
0
0
0
0
0
0
0
0
0
0
0
0
0
0
0
0
0
0
0
0
0
0
0
0
0
0
0
0
0
0
0
0
0
0
0
0
0
0
0
0
0
0
0
0
0
0
0
0
0
0
0
0
0
0
0
0
0
0
0
0
0
0
0
0
0
0
0
0
0
0
0
0
0
0
0
0
0
0
0
0
0
0
0
0
0
0
0
0
0
0
0
0
0
0
0
0
0
0
0
0
0
0
0
0
0
0
0
0
0
0
0
0
0
0
0
0
0
0
0
0
0
0
0
0
0
0
0
0
0
0
0
0
0
0
0
0
0
0
0
0
0
0.04
0.0254402
0.025924
0.0254901
0.0256497
0.0257456
0.025559
0.0252267
0.0249117
0.0247386
0.0252106
0.0248804
0.0247522
0.0246713
0.0252329
0.0249668
0.0249224
0.0249508
0.0252179
0.0250982
0.0250686
0.0251446
0.025224
0.0251724
0.0251721
0.0252284
0.0252373
0.0252131
0.0252262
0.0252511
0.0252411
0.0252304
0.0252438
0.0252472
0.0252344
0.0252328
0.0252337
0.0252306
0.0252213
0.0252199
0.0252219
0.0252103
0.025204
0.0252058
0.0251959
0.025193
0.0251911
0.0251845
0.0251873
0.0251774
0.0251626
0.0251723
0.0251696
0.0251563
0.0251648
0.0251574
0.0251408
0.0251545
0.0251438
0.0251156
0.0251489
0.025167
0.0251046
0.0250966
0.0251563
0.0251204
0.025054
0.0251247
0.0251818
0.0250663
0.0249983
0.0251217
0.025165
0.0250011
0.024953
0.0251466
0.0251915
0.0249051
0.0247395
0.0250327
0.0253325
0.0250403
0.0244288
0.0243843
0.0251214
0.0256746
0.0250121
0.0234487
0.0225897
0.0237646
0.0263904
0.0278554
0.0256389
0.0198123
0.0128663
0.00720767
0.00360532
0.00165692
0.000712298
0.000289115
0.000111217
4.06162e-05
1.40418e-05
4.60354e-06
1.42642e-06
3.9162e-07
1.05454e-07
5.77638e-08
6.19437e-09
2.72397e-08
2.67404e-08
9.26086e-09
7.79881e-09
8.13312e-09
1.15856e-08
8.48351e-09
6.82719e-10
1.3304e-08
1.4082e-08
5.77891e-09
6.47777e-09
1.04083e-08
6.75766e-09
1.93211e-09
1.98569e-09
6.61005e-09
8.85122e-09
1.14961e-09
1.0493e-08
5.64073e-09
5.89389e-09
5.48545e-09
1.8138e-09
2.90055e-09
1.2339e-09
8.63389e-10
2.70786e-10
4.34113e-10
2.10767e-10
5.9214e-11
1.23577e-10
9.10233e-11
5.17397e-11
4.99885e-11
4.73489e-11
7.32082e-11
6.06287e-11
3.50832e-11
8.43984e-11
3.86204e-11
8.21492e-11
5.25619e-11
3.86909e-11
4.3119e-11
3.77439e-11
2.80742e-11
1.30531e-11
3.8407e-11
8.72162e-12
1.78394e-11
1.64421e-11
0
0
0
0
0
0
0
0
0
0
0
0
0
0
0
0
0
0
0
0
0
0
0
0
0
0
0
0
0
0
0
0
0
0
0
0
0
0
0
0
0
0
0
0
0
0
0
0
0
0
0
0
0
0
0
0
0
0
0
0
0
0
0
0
0
0
0
0
0
0
0
0
0
0
0
0
0
0
0
0
0
0
0
0
0
0
0
0
0
0
0
0
0
0
0
0
0
0
0
0
0
0
0
0
0
0
0
0
0
0
0
0
0
0
0
0
0
0
0
0
0
0
0
0
0
0
0
0
0
0
0
0
0
0
0
0
0
0
0
0
0
0
0
0
0
0
0
0
0
0
0
0
0
0
0
0
0
0
0
0
0
0
0
0
0
0
0
0
0
0
0
0
0
0
0
0
0
0
0
0
0
0
0
0
0
0
0
0
0
0
0
0
0
0
0
0
0
0
0
0
0
0
0
0
0
0
0
0
0
0
0
0
0
0
0
0
0
0
0
0
0
0
0
0
0
0
0
0
0
0
0
0
0
0
0
0
0
0
0
0.04
0.0253647
0.025422
0.0253765
0.0256412
0.0254467
0.0254018
0.0251793
0.0251045
0.0250914
0.0251097
0.0246079
0.0250029
0.0250343
0.0250756
0.024714
0.0250841
0.0251343
0.0250783
0.024961
0.0251543
0.0251903
0.0251215
0.0251188
0.0252074
0.0252078
0.0251691
0.0251957
0.0252315
0.0252163
0.0252043
0.0252251
0.0252327
0.0252161
0.0252165
0.0252305
0.025222
0.0252135
0.0252147
0.0252143
0.0252083
0.0251997
0.0252022
0.025204
0.0251913
0.0251896
0.0251858
0.0251741
0.0251809
0.0251804
0.0251655
0.0251699
0.0251664
0.0251526
0.0251576
0.0251489
0.0251394
0.0251655
0.0251558
0.0251105
0.0251298
0.025156
0.0251102
0.025107
0.0251632
0.0251253
0.0250555
0.0251167
0.0251652
0.0250563
0.0250127
0.0251568
0.0251886
0.0249851
0.0249117
0.0251262
0.0252165
0.0249488
0.0247594
0.0250196
0.0253085
0.0250231
0.024417
0.0243761
0.0251268
0.0256969
0.0250273
0.0234204
0.0225031
0.0236439
0.0262941
0.0278475
0.0257359
0.0199617
0.0129983
0.00729148
0.00364793
0.00167574
0.000719842
0.00029197
0.000112336
4.11303e-05
1.43811e-05
4.79817e-06
1.56466e-06
5.16259e-07
1.85996e-07
6.8148e-08
3.3384e-08
4.62352e-08
1.2108e-08
1.72216e-08
1.60959e-08
9.97477e-09
1.02751e-08
5.36007e-09
1.25586e-08
1.01403e-08
8.20976e-09
1.23032e-08
9.03491e-09
4.27085e-09
5.89473e-09
7.66004e-09
4.83259e-09
8.94178e-09
5.19375e-09
1.25213e-08
2.96681e-09
9.42569e-09
5.86187e-09
3.82319e-09
4.33514e-09
1.21482e-09
1.94837e-09
1.72858e-10
5.20321e-10
6.44236e-10
1.79289e-10
2.90998e-11
2.07965e-10
1.04843e-10
5.76375e-11
2.22129e-11
5.22699e-11
6.01816e-11
5.53769e-11
6.50458e-12
6.66805e-11
3.51833e-11
6.69448e-11
4.63755e-11
3.69467e-11
4.20225e-11
3.41084e-11
2.51404e-11
1.07613e-11
3.39766e-11
5.24247e-12
1.57618e-11
1.51094e-11
0
0
0
0
0
0
0
0
0
0
0
0
0
0
0
0
0
0
0
0
0
0
0
0
0
0
0
0
0
0
0
0
0
0
0
0
0
0
0
0
0
0
0
0
0
0
0
0
0
0
0
0
0
0
0
0
0
0
0
0
0
0
0
0
0
0
0
0
0
0
0
0
0
0
0
0
0
0
0
0
0
0
0
0
0
0
0
0
0
0
0
0
0
0
0
0
0
0
0
0
0
0
0
0
0
0
0
0
0
0
0
0
0
0
0
0
0
0
0
0
0
0
0
0
0
0
0
0
0
0
0
0
0
0
0
0
0
0
0
0
0
0
0
0
0
0
0
0
0
0
0
0
0
0
0
0
0
0
0
0
0
0
0
0
0
0
0
0
0
0
0
0
0
0
0
0
0
0
0
0
0
0
0
0
0
0
0
0
0
0
0
0
0
0
0
0
0
0
0
0
0
0
0
0
0
0
0
0
0
0
0
0
0
0
0
0
0
0
0
0
0
0
0
0
0
0
0
0
0
0
0
0
0
0
0
0
0
0
0
0.04
0.0247266
0.0249008
0.0255336
0.025643
0.025364
0.025409
0.0253089
0.02533
0.0250276
0.0250156
0.0249561
0.0252881
0.0248236
0.0249654
0.0250227
0.0252401
0.0249354
0.0250267
0.0251514
0.0251944
0.0250614
0.025118
0.0252062
0.0251858
0.0251393
0.0251834
0.025219
0.0251904
0.0251811
0.0252119
0.0252161
0.0251984
0.0252019
0.0252156
0.0252097
0.0251971
0.0252062
0.0252088
0.0251992
0.0251992
0.0251973
0.0251922
0.0251892
0.0251847
0.025189
0.0251823
0.0251692
0.0251775
0.0251742
0.0251559
0.0251616
0.0251624
0.0251537
0.02516
0.0251433
0.025124
0.0251521
0.0251521
0.0251091
0.025125
0.0251515
0.0251045
0.0250933
0.0251435
0.0251091
0.0250484
0.0251148
0.0251599
0.0250422
0.0249906
0.0251302
0.0251603
0.024962
0.0249053
0.0251341
0.0252084
0.0248967
0.0246834
0.0249776
0.0253258
0.0250531
0.0243919
0.0242895
0.0250443
0.0256818
0.02507
0.0234487
0.0224573
0.0235364
0.0262109
0.027883
0.0259069
0.0201948
0.0132037
0.00742941
0.0037255
0.00171458
0.000737882
0.000299848
0.00011557
4.23212e-05
1.47553e-05
4.87541e-06
1.51978e-06
4.72417e-07
1.27375e-07
3.92572e-08
4.51138e-08
1.69638e-08
9.89891e-09
2.16769e-08
9.88594e-09
8.05119e-09
3.92592e-09
8.90243e-09
6.1593e-09
1.1414e-08
8.94582e-09
1.40604e-09
8.63763e-09
9.98479e-09
3.76977e-09
4.12125e-09
5.69242e-09
8.37865e-09
7.67059e-09
5.26268e-09
1.21696e-08
1.49017e-09
8.49698e-09
3.88232e-09
3.48814e-09
2.39435e-09
6.30455e-10
9.7013e-10
3.3847e-10
5.63639e-10
2.09525e-10
9.13755e-11
2.16863e-10
1.44197e-10
6.67506e-11
3.546e-11
7.03468e-11
4.76565e-11
5.10633e-11
2.07344e-11
5.34234e-11
3.11874e-11
5.14499e-11
4.0567e-11
3.55458e-11
4.02418e-11
3.0663e-11
2.2362e-11
8.47256e-12
2.9419e-11
1.92941e-12
1.35288e-11
1.37153e-11
0
0
0
0
0
0
0
0
0
0
0
0
0
0
0
0
0
0
0
0
0
0
0
0
0
0
0
0
0
0
0
0
0
0
0
0
0
0
0
0
0
0
0
0
0
0
0
0
0
0
0
0
0
0
0
0
0
0
0
0
0
0
0
0
0
0
0
0
0
0
0
0
0
0
0
0
0
0
0
0
0
0
0
0
0
0
0
0
0
0
0
0
0
0
0
0
0
0
0
0
0
0
0
0
0
0
0
0
0
0
0
0
0
0
0
0
0
0
0
0
0
0
0
0
0
0
0
0
0
0
0
0
0
0
0
0
0
0
0
0
0
0
0
0
0
0
0
0
0
0
0
0
0
0
0
0
0
0
0
0
0
0
0
0
0
0
0
0
0
0
0
0
0
0
0
0
0
0
0
0
0
0
0
0
0
0
0
0
0
0
0
0
0
0
0
0
0
0
0
0
0
0
0
0
0
0
0
0
0
0
0
0
0
0
0
0
0
0
0
0
0
0
0
0
0
0
0
0
0
0
0
0
0
0
0
0
0
0
0
0.04
0.0251078
0.0255153
0.0253845
0.0252625
0.025434
0.0254651
0.0252531
0.0252547
0.025022
0.0252053
0.0250344
0.0251027
0.0248205
0.0252228
0.0250413
0.0250262
0.0249517
0.0252103
0.0251133
0.0250422
0.0250896
0.025205
0.0251446
0.0251015
0.0251624
0.0252013
0.0251597
0.0251517
0.025192
0.0251957
0.0251702
0.0251807
0.0251993
0.0251904
0.0251821
0.02519
0.0251968
0.0251859
0.025183
0.0251942
0.0251884
0.0251801
0.0251829
0.0251796
0.0251798
0.0251754
0.0251662
0.0251736
0.0251705
0.0251552
0.0251593
0.0251548
0.0251476
0.0251625
0.0251468
0.0251189
0.0251455
0.0251527
0.025111
0.0251224
0.0251495
0.0251056
0.0250925
0.0251398
0.0251094
0.025055
0.0251201
0.0251561
0.0250325
0.0249867
0.0251393
0.025175
0.024968
0.0248983
0.0251215
0.0251997
0.0248974
0.0246957
0.0249958
0.0253318
0.0250302
0.0243479
0.0242565
0.0250507
0.0257186
0.025091
0.0234108
0.0223581
0.0234164
0.0261333
0.0279019
0.0260244
0.0203525
0.0133352
0.00750936
0.00376415
0.00173018
0.000743103
0.000301191
0.000115738
4.22348e-05
1.46288e-05
4.87846e-06
1.55816e-06
4.66877e-07
1.5772e-07
7.22844e-08
4.63328e-08
5.04828e-09
1.68974e-08
2.11038e-08
8.55336e-09
8.26058e-09
6.08914e-09
1.50565e-08
8.05893e-09
8.79593e-09
1.60396e-08
1.02258e-08
7.39759e-09
9.30519e-09
8.648e-09
6.74272e-09
1.73518e-09
5.23702e-09
6.08205e-09
9.80201e-09
2.30399e-09
1.03937e-08
2.61409e-09
6.08131e-09
2.6306e-09
2.07785e-09
1.44186e-09
6.49522e-10
4.42171e-10
3.27916e-10
2.58226e-10
9.70846e-11
1.71176e-10
1.5965e-10
4.79404e-11
5.3027e-11
8.08817e-11
2.8189e-11
5.20138e-11
4.32736e-11
3.99626e-11
2.70935e-11
3.62183e-11
3.50246e-11
3.42959e-11
3.76372e-11
2.7437e-11
1.97132e-11
6.26012e-12
2.48254e-11
2.5666e-12
1.1181e-11
1.22712e-11
0
0
0
0
0
0
0
0
0
0
0
0
0
0
0
0
0
0
0
0
0
0
0
0
0
0
0
0
0
0
0
0
0
0
0
0
0
0
0
0
0
0
0
0
0
0
0
0
0
0
0
0
0
0
0
0
0
0
0
0
0
0
0
0
0
0
0
0
0
0
0
0
0
0
0
0
0
0
0
0
0
0
0
0
0
0
0
0
0
0
0
0
0
0
0
0
0
0
0
0
0
0
0
0
0
0
0
0
0
0
0
0
0
0
0
0
0
0
0
0
0
0
0
0
0
0
0
0
0
0
0
0
0
0
0
0
0
0
0
0
0
0
0
0
0
0
0
0
0
0
0
0
0
0
0
0
0
0
0
0
0
0
0
0
0
0
0
0
0
0
0
0
0
0
0
0
0
0
0
0
0
0
0
0
0
0
0
0
0
0
0
0
0
0
0
0
0
0
0
0
0
0
0
0
0
0
0
0
0
0
0
0
0
0
0
0
0
0
0
0
0
0
0
0
0
0
0
0
0
0
0
0
0
0
0
0
0
0
0
0.04
0.0252581
0.0253491
0.0251615
0.0254152
0.0255199
0.0253561
0.0252322
0.0252869
0.0251618
0.0252973
0.0249404
0.0251506
0.0250605
0.025235
0.0248872
0.0251258
0.0251506
0.0251479
0.0249924
0.0251448
0.025198
0.0251259
0.0250829
0.0251759
0.0251936
0.025133
0.0251369
0.0251888
0.025179
0.0251473
0.0251631
0.0251862
0.025168
0.0251576
0.0251768
0.0251801
0.0251694
0.0251678
0.0251748
0.0251761
0.0251681
0.0251734
0.0251787
0.0251664
0.0251682
0.0251705
0.0251579
0.0251615
0.0251654
0.0251579
0.0251582
0.0251441
0.0251339
0.0251544
0.0251455
0.0251194
0.0251426
0.0251445
0.025099
0.0251101
0.0251396
0.0250998
0.0250906
0.0251375
0.025099
0.0250334
0.0250948
0.025141
0.0250337
0.0249928
0.0251283
0.025137
0.0249228
0.0248783
0.0251327
0.0252083
0.0248685
0.0246381
0.0249522
0.0253257
0.0250381
0.0243302
0.024208
0.0250059
0.0257099
0.0251093
0.0234141
0.0223143
0.0233386
0.0260837
0.0279496
0.0261799
0.0205546
0.01351
0.00762554
0.00382931
0.00176324
0.000758878
0.00030842
0.000118954
4.36433e-05
1.52582e-05
5.08213e-06
1.62142e-06
4.96204e-07
1.57271e-07
4.97599e-08
3.49864e-08
1.37783e-08
2.81571e-08
1.03225e-08
1.07172e-08
1.07538e-08
4.4597e-09
3.55215e-09
8.48956e-09
1.06792e-08
5.57304e-09
7.88356e-09
1.08254e-08
5.95923e-09
1.1904e-09
6.73824e-09
5.26857e-09
8.53536e-09
6.64363e-09
8.5429e-09
1.06511e-08
2.94558e-09
9.09283e-09
1.34464e-09
4.38364e-09
1.79213e-09
1.53063e-09
7.7599e-10
3.46597e-10
4.04208e-10
2.83009e-10
1.25351e-10
1.41152e-10
1.57353e-10
3.14429e-11
5.24044e-11
7.73948e-11
1.07791e-11
5.13939e-11
5.95664e-11
2.76743e-11
2.34065e-11
2.14141e-11
2.96907e-11
3.30946e-11
3.41196e-11
2.44534e-11
1.71482e-11
4.21712e-12
2.02816e-11
5.97024e-12
8.76027e-12
1.07891e-11
0
0
0
0
0
0
0
0
0
0
0
0
0
0
0
0
0
0
0
0
0
0
0
0
0
0
0
0
0
0
0
0
0
0
0
0
0
0
0
0
0
0
0
0
0
0
0
0
0
0
0
0
0
0
0
0
0
0
0
0
0
0
0
0
0
0
0
0
0
0
0
0
0
0
0
0
0
0
0
0
0
0
0
0
0
0
0
0
0
0
0
0
0
0
0
0
0
0
0
0
0
0
0
0
0
0
0
0
0
0
0
0
0
0
0
0
0
0
0
0
0
0
0
0
0
0
0
0
0
0
0
0
0
0
0
0
0
0
0
0
0
0
0
0
0
0
0
0
0
0
0
0
0
0
0
0
0
0
0
0
0
0
0
0
0
0
0
0
0
0
0
0
0
0
0
0
0
0
0
0
0
0
0
0
0
0
0
0
0
0
0
0
0
0
0
0
0
0
0
0
0
0
0
0
0
0
0
0
0
0
0
0
0
0
0
0
0
0
0
0
0
0
0
0
0
0
0
0
0
0
0
0
0
0
0
0
0
0
0
0.04
0.0250848
0.0250673
0.0252551
0.0254136
0.0252144
0.0252781
0.0253315
0.0252914
0.0251003
0.0252223
0.0250048
0.025282
0.0249949
0.0251198
0.0250029
0.0252456
0.025032
0.0250629
0.0251167
0.0252013
0.0250785
0.0250869
0.0251719
0.0251782
0.0251079
0.0251279
0.025181
0.0251592
0.0251237
0.0251501
0.0251709
0.02515
0.0251378
0.0251561
0.0251596
0.0251429
0.0251497
0.0251621
0.0251558
0.0251525
0.0251561
0.0251609
0.0251575
0.0251508
0.0251643
0.025168
0.0251513
0.0251526
0.0251539
0.0251469
0.0251567
0.0251494
0.0251343
0.0251496
0.0251414
0.0251136
0.0251339
0.025142
0.0251067
0.0251185
0.0251396
0.0250914
0.0250792
0.0251307
0.0251039
0.0250473
0.0251042
0.025137
0.0250208
0.0249816
0.025126
0.0251452
0.0249377
0.0248891
0.0251261
0.0251835
0.0248449
0.02464
0.0249796
0.0253462
0.0250193
0.024278
0.024164
0.0250053
0.0257423
0.0251272
0.0233767
0.0222223
0.0232332
0.0260253
0.0279856
0.026305
0.0207105
0.0136359
0.00770025
0.00386428
0.00177648
0.000762741
0.000308911
0.000118524
4.31672e-05
1.49523e-05
4.88108e-06
1.5113e-06
4.86808e-07
1.43122e-07
4.9397e-08
1.95309e-08
2.99753e-08
1.51108e-08
1.51715e-08
1.30024e-08
1.50243e-08
3.01408e-09
1.51092e-08
8.59881e-09
1.14599e-08
1.54101e-08
6.32302e-09
6.53411e-09
1.05846e-08
6.66519e-09
1.97271e-09
3.69668e-09
4.73199e-09
7.32614e-09
6.26133e-09
6.96416e-09
9.11563e-09
2.25029e-09
6.14153e-09
1.42892e-09
2.49885e-09
7.52185e-10
6.21605e-10
4.93499e-10
3.69713e-10
2.8896e-10
1.67284e-10
1.41955e-10
1.59233e-10
5.48412e-11
5.29438e-11
7.14137e-11
1.68568e-11
4.76854e-11
6.8908e-11
2.14262e-11
2.04444e-11
7.48239e-12
2.47254e-11
3.17079e-11
2.96789e-11
2.17192e-11
1.46295e-11
2.48981e-12
1.58646e-11
9.39367e-12
6.31137e-12
9.28086e-12
0
0
0
0
0
0
0
0
0
0
0
0
0
0
0
0
0
0
0
0
0
0
0
0
0
0
0
0
0
0
0
0
0
0
0
0
0
0
0
0
0
0
0
0
0
0
0
0
0
0
0
0
0
0
0
0
0
0
0
0
0
0
0
0
0
0
0
0
0
0
0
0
0
0
0
0
0
0
0
0
0
0
0
0
0
0
0
0
0
0
0
0
0
0
0
0
0
0
0
0
0
0
0
0
0
0
0
0
0
0
0
0
0
0
0
0
0
0
0
0
0
0
0
0
0
0
0
0
0
0
0
0
0
0
0
0
0
0
0
0
0
0
0
0
0
0
0
0
0
0
0
0
0
0
0
0
0
0
0
0
0
0
0
0
0
0
0
0
0
0
0
0
0
0
0
0
0
0
0
0
0
0
0
0
0
0
0
0
0
0
0
0
0
0
0
0
0
0
0
0
0
0
0
0
0
0
0
0
0
0
0
0
0
0
0
0
0
0
0
0
0
0
0
0
0
0
0
0
0
0
0
0
0
0
0
0
0
0
0
0.04
0.0249209
0.0250754
0.0253212
0.0252801
0.0252457
0.0253742
0.0252647
0.0252656
0.02514
0.0252723
0.0250829
0.0252695
0.0249562
0.0252328
0.0251031
0.0251635
0.0250019
0.0252017
0.0251617
0.0251002
0.0250864
0.0252006
0.0251675
0.0251005
0.0251352
0.0251921
0.0251517
0.0251163
0.0251522
0.0251698
0.0251312
0.025124
0.0251493
0.0251468
0.0251254
0.0251277
0.0251437
0.0251348
0.0251242
0.0251384
0.0251434
0.0251395
0.0251408
0.0251386
0.0251442
0.0251473
0.0251435
0.0251501