# vtk DataFile Version 3.0
LBM output step 1330
ASCII
DATASET STRUCTURED_POINTS
DIMENSIONS 400 100 1
ORIGIN 0 0 0
SPACING 1 1 1
POINT_DATA 40000
SCALARS velocity_magnitude double 1
LOOKUP_TABLE default
0
0
0
0
0
0
0
0
0
0
0
0
0
0
0
0
0
0
0
0
0
0
0
0
0
0
0
0
0
0
0
0
0
0
0
0
0
0
0
0
0
0
0
0
0
0
0
0
0
0
0
0
0
0
0
0
0
0
0
0
0
0
0
0
0
0
0
0
0
0
0
0
0
0
0
0
0
0
0
0
0
0
0
0
0
0
0
0
0
0
0
0
0
0
0
0
0
0
0
0
0
0
0
0
0
0
0
0
0
0
0
0
0
0
0
0
0
0
0
0
0
0
0
0
0
0
0
0
0
0
0
0
0
0
0
0
0
0
0
0
0
0
0
0
0
0
0
0
0
0
0
0
0
0
0
0
0
0
0
0
0
0
0
0
0
0
0
0
0
0
0
0
0
0
0
0
0
0
0
0
0
0
0
0
0
0
0
0
0
0
0
0
0
0
0
0
0
0
0
0
0
0
0
0
0
0
0
0
0
0
0
0
0
0
0
0
0
0
0
0
0
0
0
0
0
0
0
0
0
0
0
0
0
0
0
0
0
0
0
0
0
0
0
0
0
0
0
0
0
0
0
0
0
0
0
0
0
0
0
0
0
0
0
0
0
0
0
0
0
0
0
0
0
0
0
0
0
0
0
0
0
0
0
0
0
0
0
0
0
0
0
0
0
0
0
0
0
0
0
0
0
0
0
0
0
0
0
0
0
0
0
0
0
0
0
0
0
0
0
0
0
0
0
0
0
0
0
0
0
0
0
0
0
0
0
0
0
0
0
0
0
0
0
0
0
0
0
0
0
0
0
0
0
0
0
0
0
0
0
0
0
0
0
0
0
0
0
0
0
0
0
0
0
0
0
0
0
0
0
0
0
0
0
0
0
0
0
0
0
0
0
0
0
0
0
0
0
0
0
0
0.04
0.0139145
0.00827551
0.0127007
0.0152242
0.0148391
0.0117648
0.0110767
0.0110939
0.0111318
0.0107906
0.0107953
0.010538
0.0103685
0.0102489
0.0102456
0.0100812
0.00997171
0.00987767
0.00980943
0.0096815
0.00960375
0.00952006
0.00943918
0.00934302
0.00928363
0.00921806
0.00916262
0.00911636
0.00910136
0.00909349
0.00911217
0.00915792
0.00923944
0.00934583
0.00949201
0.0096738
0.0098917
0.0101373
0.0104138
0.0107087
0.0110139
0.0113163
0.0116079
0.011871
0.0120939
0.0122643
0.0123744
0.0124165
0.0123921
0.0123085
0.0121784
0.0120194
0.0118509
0.0116919
0.0115526
0.0114408
0.0113523
0.0112859
0.0112306
0.0111878
0.0111482
0.0111199
0.0110924
0.0110738
0.0110476
0.0110228
0.0109797
0.0109351
0.0108733
0.0108206
0.01076
0.0107202
0.0106768
0.0106563
0.0106267
0.0106159
0.0105885
0.0105772
0.010547
0.0105351
0.0105059
0.0105004
0.0104806
0.0104855
0.0104756
0.0104902
0.010489
0.0105112
0.0105188
0.0105488
0.0105629
0.0105937
0.0106037
0.0106226
0.0106167
0.0106142
0.0105874
0.0105629
0.0105188
0.0104785
0.0104225
0.0103713
0.0103103
0.0102537
0.0101885
0.0101262
0.0100559
0.00998423
0.00990329
0.00982018
0.0097298
0.00963665
0.00953907
0.00944136
0.00934132
0.00924175
0.00914258
0.00904539
0.00894913
0.00885533
0.00876407
0.00867488
0.00858705
0.00850105
0.00841566
0.00833006
0.00824442
0.00815917
0.00807456
0.00799179
0.00791237
0.00783784
0.00776927
0.00770791
0.00765495
0.00761088
0.00757557
0.00754891
0.00753001
0.00751718
0.00750844
0.00750164
0.00749417
0.00748354
0.00746768
0.00744496
0.0074141
0.00737464
0.00732704
0.00727222
0.00721141
0.00714663
0.00708025
0.00701417
0.00695029
0.00689067
0.00683682
0.00678977
0.00675062
0.00672029
0.00669942
0.00668853
0.00668806
0.00669819
0.00671871
0.00674899
0.00678798
0.00683424
0.00688603
0.00694141
0.00699843
0.00705542
0.00711081
0.00716331
0.00721203
0.0072563
0.00729569
0.00733004
0.00735931
0.00738364
0.00740327
0.00741853
0.00742988
0.00743779
0.00744266
0.00744489
0.00744489
0.00744293
0.00743921
0.00743396
0.00742753
0.00742033
0.00741281
0.00740553
0.0073991
0.007394
0.0073906
0.00738912
0.00738959
0.00739183
0.00739553
0.00740029
0.00740568
0.00741118
0.00741634
0.00742074
0.00742402
0.00742585
0.00742603
0.00742447
0.0074212
0.00741638
0.00741037
0.00740364
0.00739676
0.00739028
0.00738467
0.0073802
0.00737683
0.00737419
0.00737162
0.00736828
0.00736335
0.0073562
0.00734662
0.00733492
0.00732192
0.0073089
0.00729734
0.00728868
0.00728403
0.00728396
0.00728841
0.00729671
0.0073078
0.00732042
0.00733345
0.0073461
0.00735805
0.00736939
0.00738052
0.00739183
0.00740356
0.00741559
0.00742743
0.00743829
0.00744731
0.00745374
0.007457
0.00745682
0.00745312
0.00744593
0.00743538
0.00742161
0.00740488
0.00738555
0.00736416
0.00734133
0.00731769
0.00729381
0.00727012
0.00724686
0.0072242
0.0072022
0.00718091
0.0071604
0.00714073
0.00712196
0.00710417
0.00708743
0.00707182
0.00705735
0.00704395
0.00703143
0.00701951
0.00700789
0.00699632
0.00698477
0.00697344
0.00696277
0.00695342
0.00694616
0.00694182
0.00694119
0.00694492
0.00695348
0.00696702
0.00698541
0.00700814
0.00703436
0.00706297
0.00709264
0.00712196
0.00714956
0.00717418
0.00719481
0.00721075
0.00722165
0.00722754
0.0072288
0.00722616
0.00722064
0.00721345
0.00720588
0.00719919
0.00719444
0.0071924
0.00719343
0.00719748
0.00720409
0.00721247
0.00722165
0.00723058
0.00723829
0.00724404
0.00724734
0.00724802
0.00724619
0.00724219
0.00723658
0.00723004
0.00722333
0.00721729
0.00721278
0.00721061
0.00721151
0.00721601
0.00722436
0.0072365
0.00725199
0.0072701
0.00728989
0.00731035
0.00733053
0.00734973
0.0073675
0.00738374
0.00739859
0.00741238
0.00742552
0.00743839
0.00745131
0.00746449
0.00747809
0.00749218
0.0075068
0.00752195
0.00753759
0.00755361
0.00756983
0.00758597
0.00760173
0.00761673
0.0076306
0.00764297
0.00765355
0.00766207
0.00766832
0.00767217
0.00767347
0.00767212
0.00766803
0.00766117
0.00765158
0.00763937
0.00762481
0.00760828
0.00759031
0.00757154
0.0075527
0.0075345
0.00751764
0.00750271
0.0074901
0.00748003
0.0074725
0.00746731
0.0074641
0.00746244
0.00746188
0.007462
0.00746252
0.00746331
0.0074644
0.00746597
0.00746837
0.00747193
0.00747709
0.0074841
0.00749317
0.00750421
0.00751714
0.00753136
0.00754621
0.00756103
0.00757551
0.0075876
0.0075961
0.0075961
0.04
0.0231229
0.0248638
0.0222809
0.0151314
0.0142365
0.0172253
0.0178586
0.0161971
0.0155278
0.0156068
0.0154224
0.0150628
0.0149964
0.0148286
0.0145526
0.0143686
0.0143053
0.0141363
0.013953
0.0138329
0.0137339
0.0135855
0.0134653
0.0133775
0.0132866
0.0131892
0.0131304
0.0130934
0.0130656
0.0130625
0.0131019
0.0131684
0.0132647
0.0134036
0.0135872
0.0138058
0.0140639
0.0143632
0.0146957
0.015051
0.0154249
0.015807
0.0161813
0.0165338
0.0168537
0.0171263
0.0173388
0.017486
0.0175669
0.0175858
0.0175535
0.0174896
0.0174109
0.0173374
0.0172793
0.0172466
0.0172338
0.0172429
0.0172609
0.0172923
0.0173257
0.0173728
0.0174188
0.0174774
0.0175261
0.0175796
0.0176111
0.0176455
0.0176575
0.017684
0.0176964
0.0177359
0.0177641
0.0178236
0.0178636
0.0179308
0.0179709
0.0180377
0.0180702
0.0181333
0.0181656
0.0182342
0.01827
0.0183471
0.0183915
0.0184755
0.0185229
0.0186116
0.0186641
0.0187559
0.0188083
0.0188953
0.0189385
0.0190071
0.0190268
0.0190663
0.0190579
0.0190666
0.0190319
0.0190131
0.0189575
0.0189177
0.0188464
0.0187888
0.0187054
0.0186321
0.0185345
0.018442
0.0183277
0.0182153
0.018085
0.0179556
0.0178131
0.0176725
0.0175236
0.0173763
0.0172245
0.0170764
0.0169263
0.0167789
0.0166326
0.01649
0.0163476
0.0162078
0.0160697
0.0159328
0.015796
0.0156618
0.0155302
0.0154018
0.0152784
0.0151626
0.0150548
0.0149562
0.0148682
0.0147918
0.014726
0.0146707
0.0146254
0.014588
0.0145561
0.0145278
0.0145007
0.0144721
0.0144397
0.0144025
0.0143591
0.0143091
0.0142528
0.0141915
0.0141265
0.0140593
0.0139923
0.0139277
0.0138671
0.0138122
0.0137648
0.0137258
0.013696
0.0136764
0.0136673
0.013669
0.0136817
0.0137053
0.0137393
0.0137828
0.0138346
0.0138931
0.0139563
0.0140225
0.0140896
0.0141557
0.0142195
0.0142796
0.014335
0.0143852
0.0144298
0.0144686
0.0145017
0.0145291
0.0145514
0.0145688
0.0145817
0.0145907
0.0145964
0.0145991
0.0145991
0.014597
0.0145929
0.0145872
0.0145802
0.0145724
0.0145643
0.0145566
0.0145497
0.0145442
0.0145406
0.0145389
0.0145392
0.0145414
0.0145451
0.0145498
0.0145553
0.0145608
0.0145662
0.0145708
0.0145743
0.0145765
0.0145772
0.0145763
0.0145738
0.0145699
0.014565
0.0145597
0.0145545
0.01455
0.0145467
0.0145448
0.0145444
0.0145449
0.0145458
0.014546
0.0145446
0.014541
0.0145347
0.014526
0.0145156
0.0145048
0.0144951
0.014488
0.0144846
0.0144857
0.0144913
0.0145008
0.0145133
0.0145274
0.0145421
0.0145565
0.0145702
0.0145832
0.0145958
0.0146082
0.0146206
0.014633
0.0146447
0.014655
0.0146631
0.0146681
0.0146697
0.0146675
0.0146616
0.014652
0.014639
0.0146227
0.0146034
0.0145816
0.0145578
0.0145326
0.0145067
0.0144808
0.0144551
0.01443
0.0144056
0.014382
0.0143592
0.0143374
0.0143166
0.0142968
0.0142781
0.0142605
0.0142443
0.0142293
0.0142156
0.014203
0.0141913
0.0141802
0.0141695
0.0141593
0.0141497
0.0141412
0.0141345
0.0141303
0.0141293
0.0141324
0.0141399
0.0141525
0.0141701
0.0141926
0.0142194
0.0142497
0.0142822
0.0143158
0.014349
0.0143804
0.014409
0.0144336
0.0144536
0.0144687
0.0144789
0.0144846
0.0144863
0.0144852
0.0144823
0.0144789
0.0144762
0.0144752
0.0144765
0.0144806
0.0144874
0.0144964
0.0145069
0.0145179
0.0145284
0.0145375
0.0145445
0.014549
0.0145508
0.0145502
0.0145475
0.0145433
0.0145385
0.0145338
0.0145302
0.0145285
0.0145296
0.0145343
0.014543
0.014556
0.0145731
0.0145939
0.0146176
0.0146431
0.0146695
0.0146956
0.0147207
0.0147443
0.0147661
0.0147864
0.0148054
0.0148235
0.014841
0.0148584
0.0148759
0.0148936
0.0149118
0.0149303
0.0149494
0.0149688
0.0149885
0.0150082
0.0150277
0.0150466
0.0150644
0.0150807
0.0150952
0.0151075
0.0151172
0.0151242
0.0151284
0.0151296
0.0151277
0.0151229
0.0151151
0.0151044
0.0150912
0.0150758
0.0150587
0.0150405
0.015022
0.0150039
0.014987
0.0149719
0.0149592
0.0149494
0.0149424
0.0149383
0.0149367
0.0149373
0.0149396
0.014943
0.0149471
0.0149517
0.0149567
0.014962
0.014968
0.0149749
0.0149832
0.0149933
0.0150053
0.0150193
0.0150352
0.0150527
0.0150711
0.0150898
0.0151076
0.0151233
0.0151359
0.0151451
0.0151451
0.04
0.023929
0.0221082
0.0191579
0.0202846
0.0223677
0.0214089
0.0197206
0.0198574
0.0203418
0.019779
0.019152
0.0190037
0.0188841
0.0185289
0.0182998
0.0181526
0.0179412
0.0176985
0.0175597
0.017414
0.0172333
0.017072
0.0169627
0.0168364
0.0167128
0.0166218
0.0165594
0.0164986
0.0164681
0.0164766
0.0165149
0.0165792
0.0166895
0.0168425
0.0170319
0.0172604
0.0175343
0.0178435
0.0181817
0.0185457
0.0189286
0.0193145
0.0196922
0.0200511
0.0203765
0.0206531
0.0208728
0.0210301
0.0211221
0.0211552
0.0211426
0.0211025
0.0210524
0.0210129
0.0209939
0.0210034
0.0210362
0.0210916
0.0211571
0.0212361
0.0213181
0.0214131
0.0215092
0.0216179
0.0217174
0.0218213
0.0219046
0.0219904
0.0220547
0.0221351
0.0222027
0.0222995
0.0223851
0.0225031
0.0225997
0.0227256
0.0228198
0.0229423
0.0230268
0.0231471
0.0232293
0.023354
0.0234405
0.0235775
0.0236703
0.0238128
0.0239084
0.0240574
0.0241526
0.0243011
0.0243934
0.024535
0.024611
0.0247299
0.0247784
0.0248651
0.0248803
0.0249327
0.0249179
0.0249387
0.0248991
0.0248946
0.0248342
0.0248063
0.0247304
0.0246805
0.0245848
0.0245095
0.0243942
0.0242923
0.0241553
0.0240308
0.0238794
0.0237361
0.0235731
0.0234197
0.0232515
0.0230901
0.0229212
0.0227592
0.0225913
0.0224298
0.022267
0.0221084
0.0219484
0.0217931
0.0216386
0.0214875
0.0213392
0.0211975
0.0210615
0.0209334
0.0208145
0.0207063
0.0206081
0.0205208
0.0204445
0.020378
0.0203197
0.0202687
0.020223
0.0201802
0.0201384
0.0200964
0.0200522
0.020005
0.0199543
0.0199002
0.019843
0.0197833
0.0197224
0.0196615
0.0196015
0.0195437
0.0194897
0.0194405
0.019397
0.0193606
0.019332
0.0193121
0.0193018
0.0193016
0.0193118
0.0193325
0.0193635
0.019404
0.019453
0.0195091
0.0195705
0.0196354
0.0197022
0.019769
0.0198341
0.0198964
0.0199548
0.0200085
0.0200569
0.0200999
0.0201374
0.0201694
0.0201962
0.0202181
0.0202357
0.0202492
0.0202591
0.020266
0.0202702
0.020272
0.0202717
0.0202698
0.0202666
0.0202626
0.0202583
0.0202543
0.0202511
0.0202492
0.020249
0.0202507
0.0202542
0.0202595
0.0202663
0.0202743
0.0202829
0.0202917
0.0203003
0.0203082
0.020315
0.0203204
0.0203242
0.0203263
0.0203268
0.0203258
0.0203238
0.0203213
0.0203189
0.0203172
0.0203167
0.0203176
0.02032
0.0203232
0.0203268
0.0203297
0.0203312
0.0203305
0.0203273
0.0203219
0.020315
0.0203078
0.0203017
0.0202982
0.0202982
0.0203026
0.0203112
0.0203235
0.0203385
0.020355
0.0203718
0.0203883
0.020404
0.020419
0.0204335
0.0204479
0.0204623
0.0204766
0.0204904
0.0205028
0.0205132
0.0205207
0.020525
0.0205258
0.0205231
0.0205169
0.0205074
0.0204947
0.020479
0.0204606
0.0204402
0.0204182
0.0203954
0.0203723
0.0203495
0.0203273
0.0203057
0.0202849
0.020265
0.020246
0.0202279
0.0202109
0.020195
0.0201801
0.0201664
0.0201539
0.0201426
0.0201323
0.0201229
0.0201141
0.0201058
0.020098
0.020091
0.0200851
0.020081
0.0200792
0.0200805
0.0200855
0.0200949
0.0201089
0.0201277
0.020151
0.0201785
0.0202093
0.0202423
0.0202763
0.02031
0.0203421
0.0203713
0.0203968
0.0204177
0.0204339
0.0204452
0.020452
0.0204551
0.0204553
0.0204538
0.0204519
0.0204508
0.0204515
0.0204548
0.0204608
0.0204697
0.0204809
0.0204938
0.0205072
0.0205203
0.0205321
0.020542
0.0205493
0.020554
0.0205561
0.0205561
0.0205543
0.0205516
0.0205487
0.0205465
0.0205458
0.0205474
0.020552
0.0205602
0.0205722
0.0205879
0.020607
0.0206289
0.0206526
0.0206774
0.0207022
0.0207265
0.0207497
0.0207716
0.0207922
0.0208118
0.0208307
0.0208493
0.0208677
0.0208863
0.0209052
0.0209245
0.0209444
0.0209649
0.0209859
0.0210073
0.0210289
0.0210506
0.0210719
0.0210925
0.021112
0.0211299
0.0211459
0.0211595
0.0211705
0.0211787
0.0211839
0.0211859
0.0211847
0.0211803
0.0211729
0.0211627
0.0211501
0.0211356
0.0211198
0.0211033
0.0210871
0.0210718
0.021058
0.0210465
0.0210375
0.0210313
0.0210277
0.0210267
0.0210279
0.0210307
0.0210348
0.0210398
0.0210453
0.0210511
0.0210575
0.0210645
0.0210724
0.0210816
0.0210924
0.021105
0.0211196
0.0211359
0.0211538
0.0211724
0.0211913
0.0212094
0.0212257
0.021239
0.0212488
0.0212488
0.04
0.0257149
0.0269514
0.0269744
0.0267262
0.0241348
0.0225558
0.0235329
0.0242444
0.0231058
0.0221926
0.0223654
0.0223707
0.0218425
0.0214768
0.0214133
0.0211868
0.0208797
0.0207006
0.0205726
0.0203447
0.0201515
0.0200254
0.0198908
0.0197228
0.0196079
0.0195222
0.0194333
0.0193583
0.0193368
0.0193392
0.0193647
0.0194334
0.0195553
0.0197102
0.0199072
0.0201538
0.0204446
0.0207658
0.0211217
0.0215056
0.0219038
0.0223028
0.0226969
0.0230703
0.0234066
0.0236942
0.0239261
0.0240926
0.0241929
0.0242352
0.0242323
0.0242013
0.0241631
0.0241371
0.0241336
0.0241597
0.0242108
0.0242832
0.024367
0.024463
0.024563
0.024675
0.0247914
0.0249185
0.025039
0.0251618
0.0252666
0.025371
0.0254583
0.0255592
0.025653
0.0257738
0.0258878
0.0260299
0.0261552
0.0263049
0.0264247
0.0265691
0.0266802
0.026823
0.0269293
0.0270795
0.0271946
0.027358
0.0274781
0.0276529
0.0277774
0.0279577
0.0280804
0.0282642
0.028382
0.0285577
0.0286564
0.0288115
0.0288804
0.0290036
0.0290379
0.0291275
0.0291297
0.0291892
0.0291639
0.0291949
0.0291475
0.029155
0.0290873
0.0290681
0.0289801
0.0289328
0.0288203
0.0287421
0.0286077
0.0285011
0.0283479
0.0282185
0.0280512
0.0279044
0.0277294
0.0275705
0.0273911
0.0272264
0.0270474
0.026879
0.0267023
0.0265351
0.0263618
0.0261957
0.0260284
0.0258678
0.0257082
0.0255572
0.025412
0.0252762
0.0251485
0.0250323
0.0249259
0.0248299
0.0247431
0.0246654
0.0245945
0.0245292
0.0244677
0.0244086
0.0243502
0.0242914
0.0242318
0.0241712
0.0241094
0.0240468
0.0239844
0.0239227
0.0238619
0.023803
0.0237467
0.023693
0.0236423
0.0235957
0.0235537
0.023517
0.0234867
0.023464
0.0234498
0.0234449
0.0234499
0.0234652
0.0234907
0.0235258
0.0235697
0.0236212
0.023679
0.0237413
0.0238064
0.0238728
0.0239387
0.0240029
0.0240641
0.0241213
0.0241739
0.0242214
0.0242636
0.0243006
0.0243325
0.0243595
0.024382
0.0244004
0.0244151
0.0244264
0.0244348
0.0244406
0.0244443
0.0244462
0.0244468
0.0244466
0.0244462
0.0244459
0.0244465
0.0244484
0.0244518
0.0244569
0.0244638
0.0244725
0.0244826
0.0244939
0.0245059
0.0245181
0.02453
0.0245412
0.0245513
0.0245599
0.0245666
0.0245715
0.0245746
0.0245761
0.0245765
0.0245764
0.0245764
0.0245771
0.0245791
0.0245826
0.0245875
0.0245934
0.0245996
0.0246053
0.0246096
0.0246119
0.0246119
0.0246098
0.0246063
0.0246027
0.0246001
0.0246002
0.0246037
0.0246115
0.0246234
0.0246389
0.0246569
0.0246764
0.0246963
0.0247158
0.0247345
0.0247525
0.0247701
0.0247875
0.0248049
0.0248221
0.0248386
0.0248539
0.024867
0.0248774
0.0248846
0.0248885
0.024889
0.0248861
0.0248798
0.0248701
0.0248573
0.0248416
0.0248234
0.0248035
0.0247825
0.0247611
0.0247397
0.0247188
0.0246984
0.0246788
0.0246601
0.0246422
0.0246254
0.0246096
0.0245948
0.0245811
0.0245685
0.0245571
0.0245467
0.0245375
0.0245291
0.0245215
0.0245146
0.0245085
0.0245033
0.0244995
0.0244976
0.024498
0.0245016
0.0245087
0.0245199
0.0245356
0.0245558
0.0245804
0.0246088
0.0246405
0.0246743
0.0247091
0.0247436
0.0247765
0.0248067
0.0248332
0.0248552
0.0248724
0.0248849
0.0248928
0.0248969
0.0248981
0.0248977
0.0248969
0.0248969
0.0248987
0.024903
0.0249103
0.0249204
0.0249328
0.024947
0.0249618
0.0249764
0.0249897
0.025001
0.0250099
0.025016
0.0250194
0.0250204
0.0250195
0.0250172
0.0250145
0.0250119
0.0250105
0.025011
0.025014
0.0250201
0.0250297
0.0250427
0.0250589
0.0250779
0.0250988
0.025121
0.0251436
0.0251661
0.025188
0.0252091
0.0252292
0.0252486
0.0252675
0.0252861
0.0253046
0.0253235
0.0253427
0.0253625
0.025383
0.0254042
0.025426
0.0254485
0.0254714
0.0254945
0.0255176
0.0255403
0.0255622
0.0255826
0.0256013
0.0256178
0.0256315
0.0256423
0.0256498
0.0256539
0.0256545
0.0256515
0.0256452
0.0256357
0.0256235
0.025609
0.0255931
0.0255762
0.0255593
0.025543
0.0255281
0.0255151
0.0255044
0.0254964
0.0254909
0.025488
0.0254872
0.0254882
0.0254906
0.025494
0.0254981
0.0255029
0.0255083
0.0255144
0.0255217
0.0255304
0.0255408
0.0255531
0.0255675
0.0255836
0.0256015
0.0256203
0.0256393
0.0256574
0.025674
0.0256884
0.0256992
0.0256992
0.04
0.0266231
0.0277127
0.0263559
0.0255874
0.0257063
0.0267479
0.0261212
0.0246926
0.0245469
0.0252091
0.0249067
0.0241219
0.0239339
0.0240077
0.0237277
0.0233586
0.0232279
0.0230949
0.0228479
0.0226454
0.0225324
0.0223677
0.0221861
0.0220593
0.0219611
0.0218344
0.0217347
0.0216794
0.0216432
0.0216181
0.0216451
0.0217179
0.0218252
0.0219751
0.0221854
0.0224399
0.022734
0.0230703
0.0234465
0.0238435
0.0242547
0.0246726
0.0250833
0.0254672
0.0258155
0.0261165
0.0263571
0.0265297
0.0266378
0.0266868
0.0266886
0.0266639
0.0266346
0.0266181
0.0266273
0.0266677
0.0267345
0.0268222
0.0269222
0.0270311
0.0271453
0.0272704
0.0274005
0.0275386
0.0276737
0.0278074
0.0279245
0.0280377
0.0281387
0.0282491
0.028358
0.0284897
0.028621
0.0287746
0.0289159
0.0290735
0.0292084
0.0293606
0.0294846
0.0296331
0.029755
0.0299144
0.0300441
0.0302168
0.0303553
0.0305434
0.0306836
0.0308776
0.0310192
0.0312194
0.0313517
0.0315456
0.03166
0.0318357
0.031918
0.0320649
0.032113
0.0322299
0.0322442
0.0323329
0.0323185
0.0323804
0.0323423
0.0323801
0.0323191
0.0323303
0.0322474
0.0322285
0.032119
0.032067
0.0319352
0.0318513
0.0316962
0.0315859
0.0314166
0.0312816
0.0311004
0.030951
0.0307639
0.0306006
0.0304121
0.0302436
0.0300545
0.0298813
0.0296967
0.0295238
0.029343
0.0291741
0.0290041
0.0288442
0.0286872
0.028543
0.0284052
0.0282786
0.0281604
0.0280534
0.0279532
0.0278606
0.0277734
0.0276907
0.0276097
0.0275302
0.0274513
0.0273724
0.0272932
0.0272148
0.0271379
0.0270631
0.0269911
0.0269233
0.0268597
0.0267998
0.0267439
0.0266917
0.0266427
0.0265966
0.026554
0.0265153
0.0264814
0.0264534
0.0264324
0.0264197
0.0264159
0.0264217
0.0264374
0.0264627
0.0264971
0.0265395
0.026589
0.0266442
0.0267035
0.0267652
0.0268281
0.0268904
0.0269507
0.0270082
0.0270617
0.0271107
0.0271549
0.0271942
0.0272286
0.0272581
0.027283
0.0273038
0.0273208
0.0273341
0.0273443
0.0273518
0.0273571
0.0273605
0.0273626
0.0273639
0.027365
0.0273664
0.0273685
0.0273719
0.0273767
0.0273832
0.0273914
0.0274013
0.0274127
0.0274253
0.0274385
0.0274521
0.0274655
0.0274781
0.0274895
0.0274993
0.0275072
0.027513
0.0275169
0.0275192
0.0275202
0.0275208
0.0275216
0.0275231
0.0275261
0.0275306
0.0275367
0.0275439
0.0275515
0.0275587
0.0275646
0.0275687
0.0275706
0.0275706
0.0275693
0.0275679
0.0275677
0.0275699
0.0275757
0.0275856
0.0275994
0.0276167
0.0276365
0.0276576
0.0276789
0.0276998
0.0277199
0.0277392
0.027758
0.0277765
0.027795
0.0278133
0.0278309
0.0278471
0.0278614
0.027873
0.0278817
0.0278872
0.0278893
0.0278882
0.0278837
0.0278759
0.0278646
0.0278503
0.0278333
0.0278142
0.0277939
0.0277728
0.0277516
0.0277306
0.0277102
0.0276905
0.0276718
0.027654
0.0276372
0.0276215
0.0276069
0.0275934
0.027581
0.0275697
0.0275594
0.0275503
0.0275421
0.0275349
0.0275286
0.0275233
0.0275192
0.0275167
0.0275162
0.027518
0.0275229
0.0275312
0.0275433
0.0275595
0.0275799
0.0276045
0.0276326
0.0276637
0.0276969
0.027731
0.0277647
0.027797
0.0278266
0.0278527
0.0278744
0.0278915
0.0279037
0.0279116
0.0279156
0.0279169
0.0279164
0.0279156
0.0279156
0.0279173
0.0279217
0.0279289
0.027939
0.0279516
0.0279658
0.0279809
0.0279957
0.0280094
0.0280211
0.0280303
0.0280367
0.0280402
0.0280411
0.0280397
0.0280368
0.0280328
0.0280288
0.0280254
0.0280234
0.0280235
0.0280263
0.0280321
0.028041
0.0280529
0.0280675
0.0280841
0.0281022
0.0281212
0.0281404
0.0281594
0.028178
0.0281961
0.0282137
0.028231
0.0282482
0.0282655
0.0282831
0.0283013
0.02832
0.0283396
0.0283599
0.028381
0.0284028
0.0284252
0.0284482
0.0284713
0.0284943
0.0285167
0.0285381
0.0285579
0.0285755
0.0285905
0.0286025
0.0286111
0.028616
0.0286172
0.0286145
0.0286083
0.0285986
0.0285859
0.0285708
0.0285539
0.0285359
0.0285175
0.0284995
0.0284825
0.0284672
0.0284541
0.0284433
0.0284349
0.028429
0.0284253
0.0284234
0.0284229
0.0284237
0.0284254
0.0284279
0.0284313
0.0284357
0.0284415
0.0284489
0.0284582
0.0284696
0.0284833
0.0284989
0.0285161
0.0285345
0.0285534
0.0285716
0.0285885
0.028603
0.0286142
0.0286142
0.04
0.0246104
0.0251481
0.0263406
0.0270755
0.0269372
0.0265959
0.0259586
0.0262821
0.0266757
0.0261799
0.0255078
0.025628
0.0258035
0.0254393
0.0250478
0.025018
0.0249662
0.0247001
0.0244933
0.02441
0.0242735
0.0240792
0.0239552
0.0238596
0.0237281
0.0236033
0.0235325
0.023468
0.0234053
0.0233826
0.0234099
0.0234612
0.0235542
0.0237073
0.0239138
0.0241608
0.0244604
0.0248089
0.0251913
0.0255964
0.0260227
0.026454
0.0268728
0.0272668
0.0276266
0.0279344
0.0281789
0.0283573
0.0284698
0.02852
0.0285244
0.0285042
0.0284795
0.02847
0.0284894
0.0285404
0.0286188
0.028718
0.0288278
0.0289446
0.0290676
0.0291991
0.0293363
0.029481
0.029624
0.0297618
0.0298855
0.0300026
0.0301103
0.0302248
0.0303432
0.0304807
0.0306227
0.0307809
0.0309314
0.0310911
0.0312346
0.031387
0.0315184
0.0316685
0.0318014
0.0319609
0.0321008
0.0322786
0.0324294
0.0326185
0.0327712
0.0329725
0.0331262
0.0333312
0.0334765
0.0336805
0.0338067
0.0339929
0.0340884
0.0342516
0.0343119
0.0344489
0.0344761
0.0345872
0.0345843
0.0346728
0.0346435
0.0347069
0.0346544
0.0346938
0.0346146
0.0346222
0.0345187
0.0344931
0.0343618
0.0343033
0.0341504
0.0340598
0.0338884
0.0337721
0.0335874
0.0334493
0.0332575
0.0331035
0.0329069
0.0327418
0.0325451
0.0323719
0.0321764
0.032001
0.0318109
0.0316367
0.0314563
0.0312909
0.0311243
0.0309719
0.0308236
0.0306881
0.0305581
0.0304388
0.0303248
0.0302178
0.0301134
0.0300124
0.0299122
0.0298126
0.0297123
0.0296127
0.029514
0.0294172
0.0293235
0.0292352
0.0291526
0.0290763
0.0290071
0.0289445
0.0288869
0.0288337
0.028784
0.0287368
0.0286915
0.0286486
0.0286087
0.0285729
0.0285423
0.0285184
0.0285024
0.0284951
0.028497
0.0285084
0.0285292
0.0285587
0.028596
0.0286402
0.0286901
0.0287439
0.0288003
0.0288576
0.0289144
0.0289692
0.0290212
0.0290694
0.0291133
0.0291525
0.0291871
0.029217
0.0292424
0.0292634
0.0292805
0.0292938
0.0293038
0.0293109
0.0293156
0.0293184
0.02932
0.0293207
0.0293212
0.0293221
0.0293237
0.0293263
0.0293304
0.0293361
0.0293434
0.0293523
0.0293628
0.0293744
0.0293869
0.0293996
0.0294123
0.0294242
0.0294348
0.0294437
0.0294505
0.0294552
0.0294577
0.0294585
0.0294581
0.0294573
0.0294566
0.029457
0.0294588
0.0294624
0.0294675
0.0294739
0.0294808
0.0294874
0.0294929
0.0294967
0.0294985
0.0294986
0.0294977
0.0294968
0.0294972
0.0295001
0.0295065
0.0295168
0.029531
0.0295484
0.029568
0.0295889
0.0296098
0.0296303
0.0296498
0.0296685
0.0296867
0.0297046
0.0297224
0.02974
0.029757
0.0297728
0.0297866
0.0297981
0.0298068
0.0298125
0.0298152
0.0298147
0.0298108
0.0298035
0.0297926
0.0297784
0.0297612
0.0297417
0.0297205
0.0296984
0.0296759
0.0296535
0.0296316
0.0296104
0.0295902
0.029571
0.0295531
0.0295363
0.0295206
0.0295061
0.0294927
0.0294804
0.0294693
0.0294592
0.0294502
0.0294423
0.0294356
0.02943
0.029426
0.0294236
0.0294233
0.0294254
0.0294303
0.0294384
0.0294501
0.0294655
0.0294848
0.0295079
0.0295343
0.0295635
0.0295945
0.0296264
0.0296581
0.0296883
0.029716
0.0297403
0.0297604
0.029776
0.0297868
0.0297933
0.0297961
0.0297961
0.0297944
0.0297924
0.0297911
0.0297916
0.0297947
0.0298007
0.0298096
0.029821
0.0298342
0.0298482
0.0298621
0.029875
0.0298859
0.0298944
0.0299
0.0299025
0.0299022
0.0298994
0.0298946
0.0298886
0.0298819
0.0298755
0.02987
0.0298662
0.0298646
0.0298657
0.0298695
0.0298761
0.0298853
0.0298966
0.0299097
0.0299239
0.0299389
0.0299541
0.0299694
0.0299846
0.0299996
0.0300145
0.0300294
0.0300446
0.0300602
0.0300764
0.0300932
0.0301108
0.0301293
0.0301485
0.0301686
0.0301894
0.0302108
0.0302327
0.0302548
0.0302767
0.0302978
0.0303176
0.0303355
0.030351
0.0303634
0.0303725
0.0303778
0.0303792
0.0303766
0.0303703
0.0303603
0.0303472
0.0303314
0.0303135
0.0302943
0.0302743
0.0302544
0.0302352
0.0302173
0.0302012
0.0301871
0.0301753
0.0301658
0.0301584
0.0301528
0.0301489
0.0301463
0.0301448
0.0301445
0.0301453
0.0301474
0.0301511
0.0301567
0.0301644
0.0301744
0.0301868
0.0302014
0.0302177
0.0302352
0.0302533
0.0302711
0.0302878
0.0303024
0.0303143
0.0303143
0.04
0.0246079
0.025326
0.0258257
0.0260341
0.0260846
0.0262569
0.0266962
0.0270164
0.0264216
0.0261464
0.0265958
0.026747
0.0262248
0.0259985
0.0261977
0.0261586
0.0258299
0.025698
0.0257175
0.0255858
0.0253872
0.0253042
0.0252418
0.0251018
0.0249813
0.0249197
0.0248456
0.0247527
0.0247072
0.0246995
0.0246998
0.0247329
0.0248313
0.0249754
0.0251601
0.0254042
0.0257098
0.0260544
0.0264351
0.0268518
0.0272886
0.0277238
0.0281503
0.0285564
0.028922
0.0292316
0.029481
0.0296625
0.0297723
0.02982
0.0298237
0.0298009
0.0297748
0.0297676
0.029791
0.0298477
0.0299341
0.03004
0.0301559
0.0302787
0.0304062
0.0305396
0.030681
0.0308292
0.0309746
0.0311133
0.0312405
0.0313581
0.0314675
0.0315829
0.0317062
0.0318457
0.0319921
0.0321501
0.0323051
0.0324639
0.0326096
0.0327592
0.0328972
0.0330464
0.0331843
0.0333431
0.0334925
0.0336695
0.0338264
0.0340143
0.0341775
0.0343777
0.0345379
0.0347446
0.0349013
0.0351069
0.0352422
0.0354351
0.0355429
0.035716
0.0357886
0.0359395
0.0359797
0.0361086
0.0361175
0.0362249
0.0362055
0.0362913
0.036246
0.0363069
0.036234
0.0362652
0.0361658
0.0361641
0.0360358
0.036
0.0358499
0.0357799
0.0356073
0.03551
0.0353248
0.0352003
0.0350052
0.0348643
0.0346638
0.034505
0.0343034
0.0341355
0.033933
0.0337576
0.0335614
0.0333862
0.0331972
0.033028
0.032854
0.0326957
0.0325373
0.0323942
0.0322538
0.0321239
0.0319969
0.0318774
0.0317586
0.0316423
0.0315255
0.0314094
0.031292
0.0311752
0.0310596
0.0309474
0.0308394
0.0307381
0.030645
0.0305607
0.0304848
0.0304176
0.0303577
0.0303029
0.0302518
0.0302031
0.0301558
0.0301093
0.0300641
0.0300211
0.0299817
0.029947
0.0299185
0.0298977
0.0298853
0.0298818
0.0298876
0.0299029
0.0299268
0.0299586
0.0299974
0.030042
0.0300904
0.0301414
0.0301933
0.0302444
0.0302935
0.0303398
0.0303824
0.0304208
0.0304547
0.0304841
0.0305091
0.0305296
0.0305459
0.0305583
0.0305673
0.0305731
0.0305764
0.0305778
0.0305778
0.0305771
0.0305761
0.0305754
0.0305754
0.0305764
0.0305787
0.0305825
0.0305878
0.0305947
0.0306031
0.0306127
0.0306232
0.030634
0.0306447
0.0306547
0.0306633
0.03067
0.0306745
0.0306766
0.0306765
0.0306745
0.0306714
0.0306677
0.0306645
0.0306623
0.0306617
0.030663
0.0306661
0.0306705
0.0306755
0.0306804
0.0306843
0.0306866
0.0306872
0.0306863
0.0306846
0.0306831
0.030683
0.0306855
0.0306915
0.0307013
0.0307148
0.0307313
0.0307499
0.0307696
0.0307892
0.0308081
0.030826
0.030843
0.0308593
0.0308754
0.0308914
0.0309073
0.0309226
0.0309368
0.0309494
0.0309598
0.0309676
0.0309727
0.0309749
0.030974
0.0309698
0.030962
0.0309506
0.0309356
0.0309174
0.0308966
0.0308737
0.0308496
0.0308249
0.0308002
0.0307758
0.0307522
0.0307297
0.0307084
0.0306885
0.0306699
0.0306526
0.0306366
0.0306217
0.030608
0.0305954
0.0305839
0.0305737
0.0305647
0.030557
0.0305508
0.0305462
0.0305434
0.0305427
0.0305444
0.0305487
0.030556
0.0305666
0.0305805
0.030598
0.0306189
0.0306429
0.0306693
0.0306975
0.0307264
0.0307551
0.0307824
0.0308074
0.030829
0.0308467
0.03086
0.0308687
0.0308732
0.0308741
0.0308722
0.0308687
0.0308648
0.0308617
0.0308603
0.0308614
0.0308655
0.0308724
0.0308818
0.0308931
0.0309053
0.0309175
0.0309288
0.0309381
0.030945
0.030949
0.0309498
0.0309475
0.0309425
0.0309353
0.0309264
0.0309167
0.0309069
0.0308977
0.0308899
0.030884
0.0308803
0.0308793
0.0308808
0.0308849
0.0308913
0.0308995
0.0309092
0.0309199
0.0309313
0.0309432
0.0309552
0.0309674
0.0309797
0.0309923
0.0310051
0.0310185
0.0310325
0.0310472
0.0310626
0.0310789
0.0310959
0.0311137
0.0311323
0.0311516
0.0311716
0.031192
0.0312124
0.0312324
0.0312515
0.0312689
0.031284
0.0312963
0.0313053
0.0313107
0.0313122
0.0313097
0.0313034
0.0312934
0.0312802
0.0312641
0.0312458
0.0312259
0.031205
0.0311839
0.031163
0.0311431
0.0311245
0.0311077
0.0310928
0.0310799
0.0310691
0.03106
0.0310526
0.0310467
0.0310421
0.0310388
0.031037
0.0310368
0.0310385
0.0310424
0.0310488
0.0310577
0.0310691
0.0310828
0.0310986
0.0311156
0.0311333
0.0311509
0.0311674
0.0311822
0.0311947
0.0311947
0.04
0.0252657
0.0258068
0.0254878
0.0258486
0.0262363
0.0263972
0.0264131
0.026355
0.0264494
0.0268567
0.0267859
0.0264322
0.0264714
0.0267647
0.0266491
0.0263673
0.0263689
0.0264684
0.0263369
0.0261668
0.0261463
0.0261255
0.0260016
0.025901
0.0258654
0.0258012
0.0257086
0.0256568
0.0256355
0.0256047
0.0255982
0.0256469
0.0257341
0.0258535
0.0260342
0.0262781
0.0265682
0.0269028
0.0272879
0.0277057
0.0281376
0.0285758
0.0290099
0.0294171
0.0297815
0.0300948
0.0303458
0.030523
0.0306296
0.0306761
0.0306753
0.0306483
0.0306224
0.0306167
0.0306431
0.0307061
0.0307993
0.0309107
0.0310322
0.0311582
0.0312865
0.0314211
0.0315639
0.031711
0.0318566
0.0319961
0.0321228
0.0322383
0.0323488
0.0324646
0.032589
0.0327281
0.0328768
0.0330337
0.0331887
0.0333438
0.0334903
0.0336384
0.0337797
0.0339268
0.0340695
0.0342298
0.0343848
0.0345572
0.0347197
0.0349075
0.0350744
0.0352691
0.0354368
0.0356432
0.0358049
0.0360079
0.0361524
0.0363483
0.0364641
0.036642
0.0367268
0.0368868
0.036938
0.0370793
0.037099
0.0372198
0.03721