# vtk DataFile Version 3.0
LBM output step 1120
ASCII
DATASET STRUCTURED_POINTS
DIMENSIONS 400 100 1
ORIGIN 0 0 0
SPACING 1 1 1
POINT_DATA 40000
SCALARS velocity_magnitude double 1
LOOKUP_TABLE default
0
0
0
0
0
0
0
0
0
0
0
0
0
0
0
0
0
0
0
0
0
0
0
0
0
0
0
0
0
0
0
0
0
0
0
0
0
0
0
0
0
0
0
0
0
0
0
0
0
0
0
0
0
0
0
0
0
0
0
0
0
0
0
0
0
0
0
0
0
0
0
0
0
0
0
0
0
0
0
0
0
0
0
0
0
0
0
0
0
0
0
0
0
0
0
0
0
0
0
0
0
0
0
0
0
0
0
0
0
0
0
0
0
0
0
0
0
0
0
0
0
0
0
0
0
0
0
0
0
0
0
0
0
0
0
0
0
0
0
0
0
0
0
0
0
0
0
0
0
0
0
0
0
0
0
0
0
0
0
0
0
0
0
0
0
0
0
0
0
0
0
0
0
0
0
0
0
0
0
0
0
0
0
0
0
0
0
0
0
0
0
0
0
0
0
0
0
0
0
0
0
0
0
0
0
0
0
0
0
0
0
0
0
0
0
0
0
0
0
0
0
0
0
0
0
0
0
0
0
0
0
0
0
0
0
0
0
0
0
0
0
0
0
0
0
0
0
0
0
0
0
0
0
0
0
0
0
0
0
0
0
0
0
0
0
0
0
0
0
0
0
0
0
0
0
0
0
0
0
0
0
0
0
0
0
0
0
0
0
0
0
0
0
0
0
0
0
0
0
0
0
0
0
0
0
0
0
0
0
0
0
0
0
0
0
0
0
0
0
0
0
0
0
0
0
0
0
0
0
0
0
0
0
0
0
0
0
0
0
0
0
0
0
0
0
0
0
0
0
0
0
0
0
0
0
0
0
0
0
0
0
0
0
0
0
0
0
0
0
0
0
0
0
0
0
0
0
0
0
0
0
0
0
0
0
0
0
0
0
0
0
0
0
0
0
0
0
0
0
0
0.04
0.0135489
0.00799498
0.0126339
0.0150853
0.0147053
0.0117152
0.0110908
0.0111401
0.0111998
0.010884
0.0109029
0.01066
0.0104975
0.0103819
0.010376
0.0102083
0.0100906
0.00998791
0.00990932
0.00977243
0.00968531
0.00959512
0.00950893
0.00940954
0.00934623
0.00927529
0.00920838
0.00914146
0.00909111
0.00902927
0.00896931
0.00890793
0.00884932
0.0087801
0.00871233
0.00864232
0.00857147
0.00849539
0.00842191
0.00834736
0.00827242
0.00819697
0.00812372
0.00805119
0.00797883
0.00790976
0.00784149
0.00777765
0.00771366
0.00765694
0.00759849
0.00754937
0.00749675
0.00745557
0.00740824
0.00737538
0.0073332
0.00730784
0.00727066
0.0072529
0.00721942
0.00720787
0.00717783
0.00717081
0.00714249
0.00713902
0.00711196
0.00711017
0.00708456
0.00708433
0.00705989
0.00706096
0.0070392
0.00704088
0.0070217
0.00702482
0.00700842
0.00701101
0.00699759
0.00700025
0.00698787
0.00698879
0.00697845
0.00697746
0.00696619
0.00696294
0.00695221
0.00694562
0.0069329
0.0069243
0.00691092
0.00689871
0.0068833
0.00686941
0.0068523
0.00683494
0.00681586
0.00679667
0.0067751
0.00675294
0.00672956
0.00670504
0.00667861
0.00665131
0.00662219
0.00659124
0.00655867
0.00652477
0.00648886
0.00645187
0.00641414
0.00637558
0.00633643
0.00629778
0.00625931
0.00622108
0.00618371
0.00614755
0.00611191
0.00607718
0.0060438
0.00601141
0.00597942
0.0059485
0.00591862
0.00588894
0.00585941
0.00583084
0.00580261
0.00577426
0.00574664
0.00572031
0.00569459
0.0056699
0.00564735
0.00562691
0.0056082
0.00559229
0.00558
0.00557126
0.00556685
0.0055689
0.0055792
0.00559992
0.00563522
0.00569047
0.00577105
0.0058834
0.00603508
0.00623251
0.00647993
0.00677986
0.00713136
0.00752827
0.00795973
0.00841106
0.00886316
0.00929351
0.0096792
0.0099991
0.0102359
0.01038
0.0104332
0.0104088
0.0103299
0.0102244
0.0101184
0.0100277
0.00995539
0.00989491
0.0098367
0.00977537
0.00971422
0.0096641
0.009637
0.00963943
0.00966956
0.00971857
0.00977456
0.00982648
0.00986595
0.009887
0.00988571
0.00986131
0.0098174
0.00976157
0.00970324
0.00965063
0.00960829
0.00957651
0.00955244
0.00953177
0.00950995
0.00948329
0.00945008
0.00941109
0.00936895
0.00932675
0.00928647
0.00924821
0.0092105
0.0091716
0.00913073
0.0090885
0.00904656
0.00900681
0.00897088
0.00894
0.00891524
0.00889772
0.00888859
0.00888879
0.00889872
0.00891802
0.00894546
0.00897903
0.00901625
0.0090545
0.00909126
0.00912432
0.00915178
0.00917219
0.00918463
0.00918895
0.00918585
0.00917674
0.00916334
0.00914735
0.00913005
0.00911218
0.00909392
0.00907504
0.00905515
0.00903384
0.00901089
0.00898638
0.00896068
0.0089344
0.00890816
0.00888249
0.00885759
0.00883337
0.00880955
0.00878581
0.00876199
0.00873811
0.00871443
0.00869136
0.00866941
0.00864916
0.00863117
0.0086159
0.0086037
0.00859472
0.00858888
0.00858589
0.00858531
0.00858666
0.00858953
0.00859369
0.00859913
0.00860602
0.00861454
0.00862476
0.00863652
0.00864941
0.0086629
0.00867643
0.00868959
0.00870212
0.00871388
0.00872484
0.00873493
0.00874409
0.0087523
0.00875966
0.00876642
0.00877301
0.00877994
0.00878771
0.00879666
0.00880686
0.00881801
0.00882946
0.00884026
0.00884932
0.00885556
0.0088581
0.00885638
0.00885018
0.00883967
0.0088253
0.00880771
0.00878763
0.00876573
0.00874262
0.00871875
0.00869449
0.00867012
0.00864595
0.00862236
0.00859986
0.0085791
0.0085608
0.00854568
0.00853439
0.0085274
0.00852497
0.00852707
0.00853345
0.00854364
0.00855712
0.00857335
0.00859194
0.00861267
0.00863547
0.00866036
0.00868732
0.0087162
0.00874659
0.00877787
0.0088092
0.0088397
0.00886854
0.00889512
0.00891921
0.00894099
0.00896108
0.00898046
0.00900029
0.00902166
0.00904533
0.00907148
0.00909959
0.00912838
0.00915593
0.00917989
0.00919776
0.00920721
0.00920639
0.00919423
0.00917063
0.00913662
0.00909432
0.00904677
0.0089976
0.00895059
0.00890912
0.00887569
0.00885163
0.00883691
0.00883029
0.00882967
0.0088325
0.00883632
0.0088391
0.0088394
0.00883635
0.00882952
0.00881872
0.00880398
0.00878558
0.00876424
0.00874131
0.00871869
0.0086987
0.00868365
0.00867544
0.00867516
0.0086829
0.00869787
0.00871855
0.00874298
0.00876901
0.00879444
0.00881726
0.00883577
0.00884885
0.00885602
0.00885765
0.00885469
0.00884866
0.00884137
0.00883479
0.00883098
0.0088318
0.00883912
0.00885416
0.00887795
0.00891018
0.00895024
0.00899649
0.00904674
0.00909765
0.0091471
0.00919513
0.00923332
0.00925884
0.00925884
0.04
0.0225773
0.0241989
0.0215966
0.0145913
0.0138475
0.0168766
0.0175279
0.0159235
0.0153158
0.0154346
0.0152882
0.0149584
0.0149168
0.0147653
0.0145076
0.0143323
0.0142764
0.014111
0.0139341
0.0138175
0.0137276
0.0135906
0.0134881
0.0134197
0.0133526
0.0132766
0.0132342
0.0132006
0.0131596
0.0131171
0.0130872
0.0130479
0.0129995
0.01295
0.012902
0.0128447
0.0127851
0.0127277
0.0126705
0.0126104
0.0125528
0.0124989
0.0124451
0.0123938
0.0123452
0.012302
0.0122587
0.012223
0.0121875
0.0121621
0.0121338
0.012119
0.0120987
0.0120952
0.0120819
0.0120893
0.0120829
0.0121017
0.0121005
0.0121299
0.0121344
0.012173
0.0121804
0.0122281
0.0122384
0.0122914
0.0123039
0.0123634
0.0123763
0.0124391
0.012456
0.0125221
0.0125395
0.0126089
0.0126314
0.0126998
0.0127241
0.0127945
0.0128215
0.0128864
0.0129155
0.012979
0.0130064
0.0130616
0.0130902
0.0131397
0.0131626
0.0132034
0.0132252
0.0132569
0.0132713
0.0132948
0.0133049
0.0133177
0.0133197
0.0133238
0.0133182
0.0133116
0.0132975
0.0132811
0.0132579
0.0132318
0.0131991
0.0131625
0.013121
0.0130748
0.0130227
0.0129678
0.0129088
0.0128448
0.0127785
0.0127113
0.0126402
0.0125678
0.0124969
0.0124249
0.0123512
0.0122803
0.0122111
0.0121407
0.0120721
0.0120073
0.0119425
0.0118783
0.0118176
0.0117591
0.0117001
0.0116434
0.0115899
0.0115372
0.0114854
0.0114372
0.011392
0.0113483
0.0113077
0.0112717
0.0112389
0.0112093
0.0111848
0.0111659
0.0111522
0.0111456
0.011149
0.0111647
0.0111961
0.0112489
0.01133
0.0114459
0.0116042
0.0118129
0.0120779
0.0124018
0.0127847
0.0132222
0.0137042
0.0142154
0.0147369
0.0152464
0.0157191
0.0161316
0.0164649
0.0167072
0.0168568
0.0169247
0.0169331
0.0169089
0.0168774
0.0168551
0.0168461
0.0168436
0.016838
0.0168249
0.0168082
0.0167991
0.0168105
0.0168499
0.016916
0.017
0.0170907
0.0171773
0.0172516
0.0173074
0.0173405
0.0173496
0.0173373
0.0173112
0.0172804
0.0172531
0.017234
0.0172235
0.0172195
0.0172179
0.0172147
0.0172065
0.0171914
0.0171699
0.0171445
0.0171183
0.0170932
0.0170692
0.0170449
0.0170185
0.0169892
0.0169576
0.0169252
0.0168941
0.0168657
0.0168415
0.0168227
0.0168106
0.0168063
0.0168111
0.0168253
0.0168487
0.0168804
0.0169186
0.0169609
0.0170049
0.017048
0.017088
0.0171229
0.017151
0.0171713
0.0171834
0.0171876
0.0171851
0.0171773
0.0171658
0.0171518
0.017136
0.0171189
0.0171006
0.0170807
0.0170593
0.0170362
0.0170117
0.0169862
0.0169603
0.0169347
0.0169099
0.016886
0.0168631
0.0168409
0.0168192
0.0167978
0.0167768
0.0167562
0.0167366
0.0167185
0.0167024
0.016689
0.0166787
0.0166719
0.0166688
0.0166693
0.016673
0.0166793
0.0166877
0.0166975
0.0167084
0.0167202
0.0167329
0.0167467
0.0167615
0.0167771
0.0167932
0.0168091
0.0168244
0.0168388
0.016852
0.0168641
0.016875
0.0168848
0.0168937
0.0169016
0.0169088
0.0169158
0.016923
0.016931
0.0169403
0.0169513
0.0169639
0.0169779
0.0169925
0.0170067
0.0170192
0.0170288
0.0170345
0.0170356
0.0170318
0.0170231
0.01701
0.0169931
0.0169732
0.016951
0.0169275
0.0169031
0.0168784
0.016854
0.0168304
0.0168079
0.0167872
0.0167688
0.0167535
0.0167418
0.0167343
0.0167314
0.0167331
0.0167396
0.0167506
0.0167656
0.0167844
0.0168064
0.0168315
0.0168594
0.01689
0.0169235
0.0169595
0.0169978
0.017038
0.0170791
0.0171202
0.0171603
0.0171985
0.017234
0.0172666
0.0172963
0.0173237
0.0173496
0.0173752
0.0174014
0.0174289
0.0174578
0.0174877
0.0175173
0.0175447
0.0175678
0.0175842
0.0175918
0.017589
0.017575
0.0175498
0.0175146
0.0174716
0.0174239
0.0173751
0.0173289
0.0172887
0.0172571
0.0172351
0.0172229
0.0172192
0.0172217
0.0172279
0.0172353
0.0172417
0.0172457
0.0172463
0.0172431
0.0172359
0.0172249
0.0172104
0.0171933
0.017175
0.0171575
0.0171431
0.0171339
0.0171319
0.0171379
0.017152
0.0171732
0.0171998
0.0172297
0.0172609
0.017291
0.017318
0.0173405
0.0173572
0.017368
0.0173733
0.0173742
0.0173722
0.0173694
0.0173677
0.0173693
0.0173759
0.0173894
0.0174108
0.0174408
0.0174793
0.0175252
0.0175763
0.0176308
0.0176862
0.0177377
0.0177808
0.0178158
0.017842
0.017842
0.04
0.0235323
0.0216379
0.0186232
0.0198191
0.0219073
0.0209582
0.0193241
0.0195164
0.0200269
0.0194999
0.0189159
0.0188012
0.0187066
0.0183762
0.0181687
0.0180365
0.0178399
0.0176109
0.0174856
0.0173538
0.0171925
0.0170545
0.0169745
0.0168828
0.0167993
0.0167481
0.0167219
0.0166865
0.0166637
0.0166532
0.0166404
0.0166147
0.0165922
0.0165663
0.0165315
0.0164902
0.016452
0.0164111
0.0163676
0.0163261
0.0162888
0.016252
0.0162172
0.0161877
0.016161
0.0161386
0.0161188
0.0161068
0.0160954
0.0160937
0.0160914
0.0161013
0.0161078
0.0161301
0.0161444
0.016179
0.0162015
0.0162481
0.0162761
0.0163355
0.0163688
0.0164379
0.0164749
0.0165551
0.0165931
0.0166814
0.0167219
0.0168178
0.0168576
0.0169613
0.0170033
0.0171113
0.0171547
0.0172697
0.0173147
0.0174314
0.0174806
0.0175995
0.0176485
0.0177659
0.0178187
0.0179308
0.0179815
0.0180883
0.0181393
0.0182344
0.0182816
0.0183678
0.0184109
0.0184824
0.0185198
0.0185799
0.0186095
0.0186536
0.0186748
0.0187057
0.0187156
0.01873
0.0187292
0.0187292
0.0187143
0.0186984
0.0186718
0.0186402
0.0185981
0.0185529
0.0184981
0.0184367
0.0183696
0.0182983
0.0182191
0.0181369
0.0180526
0.0179638
0.017872
0.0177813
0.0176889
0.0175945
0.0175019
0.017411
0.017319
0.0172287
0.0171418
0.0170556
0.0169702
0.0168883
0.0168088
0.01673
0.0166537
0.0165809
0.0165101
0.0164414
0.0163766
0.0163157
0.0162577
0.0162038
0.0161549
0.0161106
0.016071
0.0160373
0.0160107
0.0159918
0.0159826
0.0159864
0.0160071
0.0160492
0.0161192
0.0162244
0.0163723
0.0165698
0.0168228
0.0171349
0.0175053
0.0179291
0.0183968
0.0188935
0.0193998
0.0198932
0.0203501
0.0207472
0.0210654
0.0212935
0.0214312
0.0214904
0.0214936
0.0214695
0.0214442
0.0214334
0.0214395
0.0214548
0.0214679
0.021473
0.0214743
0.0214838
0.0215149
0.0215749
0.0216619
0.0217665
0.0218766
0.0219817
0.0220742
0.0221486
0.0222008
0.0222298
0.0222384
0.022234
0.0222256
0.0222213
0.022225
0.0222369
0.0222544
0.022274
0.0222917
0.0223042
0.0223099
0.0223092
0.0223043
0.0222983
0.022293
0.0222884
0.0222832
0.0222759
0.0222658
0.0222535
0.0222406
0.0222289
0.0222199
0.0222147
0.0222145
0.0222204
0.0222334
0.0222543
0.0222836
0.022321
0.0223656
0.0224157
0.0224692
0.0225237
0.0225768
0.0226265
0.0226708
0.0227085
0.0227385
0.0227606
0.0227753
0.0227836
0.0227869
0.0227865
0.0227837
0.0227792
0.0227734
0.0227665
0.0227582
0.0227486
0.0227375
0.0227252
0.0227118
0.022698
0.022684
0.0226702
0.0226569
0.0226441
0.0226316
0.0226193
0.0226073
0.0225956
0.0225845
0.0225744
0.0225658
0.0225592
0.0225553
0.0225544
0.0225569
0.0225628
0.0225719
0.0225839
0.0225982
0.0226141
0.0226311
0.0226489
0.0226673
0.0226863
0.0227062
0.022727
0.0227485
0.0227705
0.0227926
0.0228143
0.0228353
0.0228554
0.0228745
0.0228924
0.022909
0.0229242
0.0229381
0.0229508
0.0229626
0.0229741
0.0229857
0.0229982
0.0230119
0.023027
0.0230434
0.0230603
0.0230771
0.0230927
0.023106
0.0231161
0.0231223
0.0231242
0.0231216
0.023115
0.0231045
0.023091
0.0230749
0.0230571
0.023038
0.0230184
0.0229989
0.0229799
0.0229622
0.0229463
0.0229328
0.0229224
0.0229155
0.0229126
0.0229138
0.0229194
0.0229291
0.0229428
0.0229602
0.0229809
0.0230049
0.0230318
0.0230616
0.0230943
0.0231296
0.0231673
0.0232071
0.0232483
0.02329
0.0233315
0.0233716
0.0234099
0.0234456
0.0234788
0.0235095
0.0235384
0.0235664
0.0235943
0.023623
0.023653
0.0236843
0.0237162
0.0237477
0.0237769
0.0238018
0.0238205
0.023831
0.0238319
0.0238224
0.0238026
0.0237736
0.0237372
0.0236964
0.0236543
0.0236145
0.02358
0.0235532
0.0235352
0.023526
0.0235244
0.0235285
0.023536
0.0235446
0.0235524
0.0235583
0.0235612
0.023561
0.0235574
0.0235504
0.0235403
0.023528
0.0235146
0.023502
0.0234924
0.0234879
0.0234899
0.0234995
0.0235164
0.0235399
0.0235684
0.0236
0.0236326
0.0236641
0.0236928
0.0237169
0.0237356
0.0237485
0.023756
0.0237591
0.0237594
0.0237587
0.023759
0.0237621
0.0237699
0.0237841
0.0238056
0.0238349
0.0238719
0.0239161
0.023965
0.024016
0.0240676
0.0241175
0.0241604
0.0241958
0.0242212
0.0242212
0.04
0.0253635
0.0265696
0.0265488
0.0262868
0.0236872
0.0221537
0.0231371
0.0238527
0.0227339
0.0218664
0.0220614
0.0220882
0.0215813
0.021242
0.0211939
0.0209851
0.0206931
0.0205299
0.0204155
0.0202056
0.0200319
0.0199303
0.0198246
0.019693
0.0196189
0.0195778
0.0195322
0.0194943
0.0194945
0.0194964
0.0194897
0.0194873
0.0194931
0.0194843
0.0194677
0.0194525
0.0194362
0.019411
0.0193873
0.0193675
0.0193477
0.0193276
0.019313
0.0193027
0.0192938
0.0192898
0.0192903
0.0192961
0.0193041
0.0193204
0.0193378
0.019365
0.019392
0.0194309
0.019466
0.0195177
0.0195611
0.0196234
0.0196736
0.0197485
0.0198026
0.0198875
0.0199461
0.0200409
0.0200996
0.0202049
0.0202647
0.0203775
0.0204372
0.0205605
0.0206186
0.0207498
0.0208098
0.020949
0.0210077
0.0211551
0.0212161
0.0213656
0.0214269
0.0215806
0.0216414
0.0217899
0.0218521
0.0219968
0.0220546
0.0221885
0.0222471
0.0223693
0.0224208
0.0225295
0.022579
0.0226709
0.0227118
0.0227886
0.0228227
0.0228801
0.0229036
0.022944
0.0229553
0.0229763
0.0229745
0.0229762
0.0229592
0.0229427
0.0229092
0.0228728
0.0228247
0.0227707
0.0227047
0.022636
0.0225583
0.0224736
0.0223844
0.0222929
0.0221942
0.0220933
0.0219923
0.0218883
0.0217815
0.0216769
0.0215725
0.0214663
0.0213618
0.0212603
0.0211586
0.0210578
0.0209601
0.0208646
0.0207698
0.0206775
0.0205888
0.0205025
0.0204187
0.0203391
0.020264
0.0201927
0.0201257
0.0200644
0.0200089
0.0199592
0.0199166
0.0198829
0.0198598
0.0198496
0.0198566
0.0198864
0.0199445
0.0200377
0.0201745
0.020362
0.0206054
0.0209081
0.0212704
0.0216869
0.0221473
0.022637
0.0231371
0.023624
0.0240735
0.0244628
0.0247724
0.0249905
0.0251168
0.0251644
0.0251565
0.0251225
0.0250896
0.0250739
0.0250765
0.025088
0.0250962
0.0250947
0.0250882
0.0250902
0.0251153
0.0251707
0.0252538
0.0253541
0.0254593
0.025559
0.0256466
0.0257176
0.025768
0.0257963
0.0258051
0.0258017
0.0257951
0.0257929
0.0257988
0.0258122
0.0258306
0.0258506
0.0258691
0.0258833
0.0258914
0.0258938
0.0258925
0.02589
0.025888
0.0258869
0.0258854
0.0258821
0.0258765
0.0258694
0.0258623
0.0258569
0.0258545
0.0258562
0.0258629
0.0258755
0.025895
0.0259221
0.0259569
0.0259991
0.0260479
0.0261019
0.026159
0.026217
0.0262736
0.0263269
0.0263752
0.0264171
0.0264518
0.0264791
0.0264994
0.0265135
0.0265226
0.0265279
0.0265303
0.0265307
0.0265296
0.0265272
0.0265238
0.0265193
0.0265139
0.0265075
0.0265004
0.0264927
0.0264846
0.0264765
0.0264683
0.0264602
0.0264523
0.0264445
0.0264371
0.0264302
0.0264242
0.0264195
0.0264166
0.0264159
0.0264181
0.0264235
0.0264324
0.0264447
0.0264603
0.0264786
0.0264989
0.0265207
0.0265434
0.0265665
0.0265901
0.0266141
0.0266387
0.0266641
0.0266903
0.0267169
0.0267438
0.0267706
0.026797
0.0268227
0.0268475
0.0268711
0.0268931
0.0269135
0.0269321
0.026949
0.0269645
0.0269791
0.0269935
0.0270082
0.0270238
0.0270405
0.0270583
0.0270769
0.0270956
0.0271135
0.0271296
0.027143
0.0271531
0.0271592
0.0271611
0.0271588
0.0271526
0.0271428
0.02713
0.0271148
0.0270979
0.0270801
0.0270622
0.0270448
0.0270288
0.0270149
0.0270036
0.0269957
0.0269913
0.0269909
0.0269944
0.0270018
0.0270131
0.0270279
0.0270462
0.0270678
0.0270926
0.0271205
0.0271517
0.0271859
0.0272229
0.0272623
0.0273036
0.027346
0.0273886
0.0274305
0.0274709
0.0275093
0.0275453
0.0275788
0.0276104
0.0276404
0.0276697
0.0276991
0.0277292
0.0277602
0.027792
0.0278238
0.0278547
0.0278829
0.0279067
0.0279244
0.0279344
0.0279354
0.0279268
0.0279088
0.0278822
0.0278489
0.0278112
0.0277721
0.0277348
0.027702
0.0276758
0.0276573
0.0276466
0.0276425
0.0276434
0.0276473
0.0276521
0.0276566
0.0276594
0.0276601
0.0276582
0.0276536
0.0276462
0.0276363
0.0276245
0.0276121
0.0276007
0.0275924
0.0275889
0.0275918
0.0276017
0.0276184
0.0276412
0.0276684
0.0276985
0.0277294
0.0277592
0.027786
0.0278085
0.0278257
0.0278372
0.0278435
0.0278455
0.0278448
0.0278431
0.0278424
0.0278445
0.027851
0.0278634
0.0278828
0.0279098
0.0279436
0.0279836
0.0280288
0.0280765
0.0281228
0.0281661
0.0282044
0.028236
0.0282579
0.0282579
0.04
0.0262318
0.0273166
0.0259637
0.0252009
0.0253252
0.0263693
0.0257275
0.024318
0.0241869
0.0248599
0.0245618
0.0238009
0.0236265
0.0237125
0.0234411
0.0230882
0.0229665
0.0228441
0.0226068
0.0224178
0.0223166
0.0221687
0.0220069
0.021906
0.0218376
0.021747
0.0216852
0.0216663
0.021657
0.0216425
0.0216527
0.0216733
0.0216844
0.0216894
0.0217021
0.0217079
0.0217043
0.0217002
0.0217
0.021695
0.0216896
0.0216889
0.0216914
0.0216938
0.0217005
0.0217126
0.0217269
0.0217453
0.0217682
0.0217966
0.0218272
0.0218657
0.0219056
0.021954
0.0220029
0.0220628
0.0221186
0.0221888
0.0222524
0.0223319
0.0223993
0.0224894
0.0225601
0.0226577
0.0227302
0.0228381
0.0229093
0.0230262
0.023098
0.0232245
0.023294
0.0234328
0.0235011
0.0236494
0.0237178
0.0238777
0.0239431
0.0241112
0.024178
0.0243502
0.0244132
0.0245885
0.0246514
0.0248203
0.0248802
0.0250448
0.0251018
0.0252523
0.0253075
0.0254466
0.0254969
0.025618
0.0256653
0.0257702
0.02581
0.0258946
0.0259273
0.0259928
0.0260138
0.0260572
0.0260671
0.0260899
0.0260828
0.0260838
0.0260628
0.0260409
0.0260004
0.0259605
0.0259034
0.0258408
0.0257693
0.0256932
0.0256047
0.025514
0.0254187
0.0253168
0.0252101
0.025104
0.0249937
0.0248799
0.0247669
0.0246542
0.0245389
0.0244243
0.0243118
0.0241994
0.0240867
0.0239765
0.0238684
0.0237611
0.0236556
0.0235537
0.0234547
0.0233583
0.0232659
0.0231785
0.0230957
0.0230176
0.0229455
0.0228804
0.0228225
0.022773
0.0227347
0.0227106
0.0227035
0.0227186
0.0227631
0.0228436
0.0229672
0.0231417
0.0233737
0.0236659
0.0240177
0.0244251
0.0248782
0.025361
0.0258543
0.0263356
0.0267796
0.0271621
0.0274639
0.0276732
0.0277891
0.0278246
0.0278051
0.0277612
0.0277207
0.0277004
0.0277014
0.0277122
0.0277187
0.0277138
0.0277025
0.0276988
0.0277185
0.0277694
0.0278484
0.0279441
0.0280435
0.0281369
0.0282184
0.0282839
0.0283301
0.0283552
0.0283614
0.0283556
0.0283469
0.0283424
0.0283453
0.0283548
0.0283686
0.0283839
0.0283981
0.0284087
0.0284139
0.0284136
0.0284094
0.0284039
0.0283988
0.0283944
0.0283897
0.0283835
0.0283754
0.0283663
0.0283576
0.0283509
0.0283475
0.0283483
0.0283541
0.0283658
0.028384
0.0284092
0.0284412
0.0284798
0.0285243
0.0285733
0.0286252
0.028678
0.0287295
0.0287778
0.0288215
0.0288593
0.0288906
0.0289153
0.0289335
0.0289458
0.0289531
0.0289563
0.0289563
0.028954
0.02895
0.0289449
0.0289391
0.0289329
0.0289262
0.0289193
0.0289121
0.0289045
0.0288964
0.0288879
0.0288789
0.0288698
0.0288606
0.0288517
0.0288434
0.0288359
0.0288297
0.028825
0.0288224
0.0288224
0.0288255
0.028832
0.0288422
0.028856
0.028873
0.0288925
0.028914
0.0289367
0.0289599
0.0289833
0.0290069
0.0290307
0.0290549
0.0290799
0.0291056
0.029132
0.0291589
0.0291861
0.0292131
0.0292398
0.0292657
0.0292904
0.0293135
0.0293346
0.0293536
0.0293704
0.0293855
0.0293992
0.0294122
0.0294252
0.0294387
0.0294532
0.0294688
0.0294852
0.0295021
0.0295186
0.029534
0.0295472
0.0295577
0.0295646
0.0295677
0.0295666
0.0295614
0.0295523
0.0295398
0.0295244
0.029507
0.0294883
0.0294693
0.0294509
0.0294341
0.0294196
0.029408
0.0293999
0.0293954
0.0293948
0.029398
0.0294048
0.029415
0.0294286
0.0294454
0.0294653
0.0294885
0.029515
0.0295448
0.0295777
0.0296136
0.0296518
0.0296916
0.0297323
0.0297728
0.0298123
0.0298501
0.0298857
0.0299189
0.0299499
0.029979
0.0300069
0.0300344
0.0300619
0.03009
0.0301187
0.0301477
0.0301763
0.0302032
0.0302273
0.0302469
0.0302606
0.0302671
0.0302655
0.0302553
0.0302368
0.0302106
0.0301782
0.0301419
0.030104
0.0300673
0.0300342
0.0300064
0.0299851
0.0299701
0.0299608
0.0299556
0.029953
0.0299513
0.0299495
0.0299467
0.0299424
0.0299363
0.0299283
0.0299182
0.0299063
0.0298931
0.0298797
0.0298676
0.0298585
0.0298542
0.0298558
0.0298638
0.0298781
0.0298978
0.0299216
0.0299477
0.0299745
0.0300001
0.0300228
0.0300412
0.0300547
0.0300627
0.0300658
0.0300649
0.0300615
0.0300572
0.0300538
0.0300531
0.0300567
0.0300657
0.0300808
0.0301027
0.0301313
0.030165
0.0302026
0.030243
0.0302831
0.0303204
0.0303522
0.0303757
0.0303904
0.0303904
0.04
0.0242344
0.0247937
0.0259595
0.0267094
0.0265923
0.0262519
0.0256146
0.0259442
0.0263312
0.0258432
0.0251822
0.0253101
0.025482
0.025125
0.0247402
0.0247158
0.024664
0.0244031
0.0241989
0.0241186
0.0239835
0.0237937
0.0236743
0.0235868
0.023467
0.0233597
0.0233102
0.0232692
0.0232266
0.0232138
0.0232306
0.0232416
0.0232542
0.0232796
0.0233059
0.0233194
0.0233333
0.02335
0.0233618
0.0233685
0.0233799
0.0233931
0.0234049
0.023419
0.0234385
0.0234594
0.0234826
0.0235107
0.0235421
0.0235767
0.0236155
0.0236595
0.0237056
0.0237587
0.0238141
0.0238756
0.0239378
0.0240098
0.0240781
0.0241566
0.0242307
0.024318
0.0243932
0.024488
0.0245664
0.0246682
0.0247457
0.0248582
0.024935
0.0250565
0.0251331
0.0252677
0.0253409
0.0254893
0.0255623
0.0257227
0.0257925
0.0259674
0.026034
0.0262153
0.0262804
0.0264689
0.0265275
0.0267146
0.0267735
0.0269561
0.0270081
0.0271827
0.0272359
0.0273959
0.0274437
0.0275912
0.0276385
0.0277651
0.0278074
0.0279174
0.0279536
0.0280399
0.0280689
0.0281343
0.0281503
0.0281927
0.0281966
0.0282137
0.0282013
0.0281973
0.028166
0.0281372
0.028091
0.0280407
0.0279738
0.0279068
0.0278267
0.0277398
0.0276466
0.0275507
0.0274449
0.0273367
0.0272266
0.027112
0.0269933
0.0268756
0.0267563
0.0266343
0.0265125
0.0263922
0.0262709
0.0261493
0.0260297
0.0259116
0.0257942
0.0256786
0.0255663
0.0254571
0.0253507
0.0252484
0.0251513
0.0250593
0.0249727
0.0248928
0.0248211
0.0247583
0.0247061
0.024668
0.0246484
0.0246511
0.0246825
0.0247508
0.0248633
0.0250267
0.0252476
0.0255302
0.0258735
0.0262723
0.0267175
0.0271937
0.0276803
0.0281543
0.0285911
0.0289659
0.0292583
0.0294568
0.0295612
0.0295847
0.0295533
0.0295
0.0294536
0.0294306
0.029431
0.0294419
0.029447
0.0294381
0.0294208
0.029411
0.0294253
0.0294718
0.0295468
0.0296375
0.0297303
0.029816
0.02989
0.0299494
0.0299913
0.0300135
0.0300178
0.0300107
0.0300008
0.0299951
0.029996
0.0300024
0.0300117
0.0300219
0.0300312
0.0300375
0.0300394
0.0300363
0.0300294
0.0300208
0.0300121
0.0300037
0.029995
0.0299849
0.0299736
0.0299617
0.0299508
0.0299422
0.0299371
0.0299363
0.0299404
0.0299501
0.0299659
0.029988
0.030016
0.0300495
0.030088
0.0301303
0.0301751
0.0302206
0.0302647
0.0303059
0.0303429
0.0303747
0.0304008
0.0304209
0.0304352
0.030444
0.0304478
0.0304472
0.0304429
0.0304358
0.0304267
0.0304165
0.0304058
0.0303952
0.0303849
0.0303749
0.0303651
0.030355
0.0303443
0.0303329
0.0303206
0.0303078
0.0302948
0.0302821
0.0302702
0.0302594
0.0302502
0.0302429
0.0302381
0.030236
0.0302374
0.0302423
0.030251
0.0302632
0.0302785
0.0302963
0.0303157
0.0303359
0.0303564
0.0303768
0.0303971
0.0304175
0.0304383
0.0304598
0.0304821
0.0305054
0.0305296
0.0305544
0.0305796
0.0306048
0.0306293
0.0306527
0.0306743
0.0306937
0.0307105
0.0307249
0.030737
0.0307474
0.0307567
0.0307656
0.0307748
0.0307848
0.0307958
0.0308079
0.0308206
0.0308335
0.0308459
0.0308569
0.0308656
0.0308714
0.0308736
0.0308717
0.0308657
0.0308554
0.0308413
0.0308238
0.0308038
0.0307823
0.0307603
0.0307388
0.030719
0.0307017
0.0306875
0.0306768
0.03067
0.0306669
0.0306675
0.0306716
0.0306789
0.0306895
0.030703
0.0307197
0.0307397
0.030763
0.0307896
0.0308195
0.0308522
0.0308871
0.0309234
0.0309603
0.0309967
0.0310319
0.0310652
0.0310963
0.0311251
0.0311518
0.0311769
0.0312011
0.0312251
0.0312492
0.0312739
0.0312988
0.0313237
0.0313476
0.0313696
0.0313884
0.0314028
0.0314117
0.0314141
0.0314093
0.0313971
0.0313776
0.0313515
0.0313199
0.0312846
0.0312476
0.031211
0.031177
0.0311469
0.0311218
0.0311017
0.031086
0.0310736
0.0310633
0.031054
0.0310451
0.0310359
0.0310262
0.0310157
0.0310041
0.0309913
0.0309774
0.0309627
0.0309483
0.0309354
0.0309256
0.0309202
0.0309201
0.0309259
0.0309373
0.0309536
0.0309735
0.0309955
0.0310181
0.0310395
0.0310583
0.0310731
0.0310832
0.0310883
0.0310889
0.0310858
0.0310804
0.0310741
0.0310688
0.0310656
0.0310663
0.0310718
0.0310828
0.0310991
0.0311212
0.0311483
0.0311785
0.0312101
0.0312417
0.0312708
0.0312952
0.0313133
0.0313232
0.0313232
0.04
0.0242829
0.0250048
0.0254779
0.0257036
0.0257665
0.0259471
0.0263923
0.0267106
0.0261157
0.0258501
0.0262975
0.0264454
0.0259235
0.0257014
0.0258955
0.0258532
0.0255224
0.0253889
0.0254006
0.0252621
0.0250555
0.0249635
0.0248894
0.0247394
0.0246106
0.0245443
0.0244689
0.0243791
0.0243371
0.0243279
0.0243129
0.0243074
0.0243329
0.0243607
0.0243787
0.0244025
0.0244343
0.0244562
0.0244729
0.0244949
0.024518
0.0245352
0.0245552
0.0245802
0.0246052
0.0246303
0.0246608
0.0246942
0.0247286
0.0247672
0.0248098
0.0248551
0.0249039
0.0249581
0.025014
0.0250749
0.025139
0.0252078
0.0252759
0.025352
0.025426
0.0255067
0.025583
0.0256718
0.0257494
0.0258433
0.0259232
0.0260262
0.0261044
0.0262184
0.0262973
0.026423
0.0265006
0.026643
0.0267173
0.0268748
0.0269484
0.0271205
0.0271876
0.0273743
0.0274386
0.0276304
0.0276888
0.0278881
0.0279412
0.0281349
0.0281864
0.0283771
0.0284231
0.0286008
0.0286487
0.0288135
0.0288569
0.0290042
0.0290478
0.0291755
0.0292135
0.0293192
0.0293516
0.0294349
0.0294563
0.029514
0.0295254
0.0295587
0.0295515
0.0295608
0.0295398
0.0295213
0.0294803
0.0294434
0.0293837
0.0293212
0.0292485
0.0291706
0.0290781
0.0289854
0.0288856
0.0287782
0.0286656
0.0285532
0.0284343
0.0283116
0.0281886
0.0280647
0.0279371
0.0278091
0.0276821
0.0275543
0.0274256
0.0272983
0.0271727
0.0270479
0.0269245
0.0268043
0.0266878
0.0265744
0.026465
0.0263613
0.0262639
0.0261723
0.0260882
0.0260142
0.0259514
0.0259018
0.0258703
0.0258627
0.025884
0.025941
0.0260431
0.0261977
0.0264099
0.0266838
0.0270205
0.0274143
0.0278543
0.0283262
0.0288101
0.029281
0.0297136
0.0300838
0.0303704
0.0305602
0.0306538
0.0306655
0.0306223
0.0305579
0.0305035
0.0304765
0.0304753
0.0304854
0.0304891
0.0304769
0.0304543
0.0304383
0.0304472
0.0304894
0.03056
0.0306456
0.030732
0.0308103
0.0308772
0.0309311
0.0309695
0.0309896
0.0309926
0.0309845
0.0309736
0.0309664
0.0309649
0.0309677
0.0309722
0.0309771
0.0309816
0.0309841
0.0309831
0.0309776
0.0309684
0.030957
0.030945
0.0309329
0.0309205
0.0309071
0.0308929
0.0308787
0.0308659
0.0308559
0.0308496
0.0308475
0.0308504
0.0308588
0.0308728
0.0308923
0.0309169
0.030946
0.0309791
0.0310153
0.0310535
0.0310921
0.0311295
0.0311643
0.0311954
0.031222
0.0312437
0.0312603
0.0312716
0.0312777
0.0312786
0.0312747
0.0312665
0.0312548
0.0312407
0.0312255
0.0312099
0.031195
0.031181
0.031168
0.0311556
0.0311432
0.0311301
0.031116
0.0311008
0.0310847
0.0310683
0.0310522
0.031037
0.0310233
0.0310114
0.0310016
0.0309946
0.0309906
0.03099
0.0309933
0.0310002
0.0310108
0.0310242
0.0310399
0.0310569
0.0310745
0.031092
0.031109
0.0311258
0.0311424
0.0311593
0.031177
0.0311958
0.0312158
0.031237
0.0312593
0.0312823
0.0313055
0.0313283
0.0313498
0.0313695
0.0313867
0.0314011
0.0314127
0.0314218
0.0314289
0.0314346
0.0314396
0.0314448
0.0314506
0.0314575
0.0314656
0.0314746
0.0314842
0.0314938
0.0315025
0.0315094
0.0315138
0.0315149
0.031512
0.0315047
0.031493
0.0314771
0.0314574
0.0314349
0.0314106
0.0313855
0.031361
0.0313382
0.0313178
0.0313006
0.0312871
0.0312773
0.0312714
0.0312691
0.0312704
0.0312749
0.0312826
0.0312935
0.0313074
0.0313246
0.031345
0.0313688
0.0313955
0.031425
0.0314565
0.0314892
0.0315223
0.0315549
0.0315861
0.0316153
0.0316423
0.031667
0.0316897
0.031711
0.0317315
0.0317518
0.0317725
0.0317935
0.0318148
0.0318356
0.0318552
0.0318726
0.0318867
0.0318966
0.0319013
0.0319002
0.0318928
0.031879
0.031859
0.0318332
0.0318027
0.0317687
0.0317328
0.0316968
0.0316622
0.0316304
0.0316021
0.0315774
0.031556
0.0315371
0.03152
0.031504
0.0314888
0.0314741
0.0314597
0.0314454
0.0314309
0.031416
0.0314007
0.0313853
0.0313707
0.0313579
0.0313483
0.0313428
0.0313424
0.0313471
0.0313569
0.0313709
0.0313883
0.0314075
0.0314272
0.0314457
0.0314617
0.031474
0.031482
0.0314854
0.0314847
0.0314806
0.0314743
0.0314673
0.031461
0.0314566
0.0314552
0.0314578
0.031465
0.0314768
0.0314927
0.0315126
0.0315356
0.0315598
0.0315837
0.0316051
0.031622
0.0316338
0.0316387
0.0316387
0.04
0.0249597
0.0254932
0.0251741
0.0255485
0.0259461
0.0261264
0.0261451
0.0260877
0.0261856
0.0265958
0.0265216
0.0261707
0.0262067
0.0264934
0.026371
0.026088
0.0260814
0.0261701
0.0260266
0.0258449
0.0258063
0.0257649
0.0256175
0.0254924
0.0254299
0.0253402
0.0252242
0.0251528
0.0251129
0.0250618
0.0250261
0.025028
0.0250399
0.0250462
0.025067
0.0250999
0.0251262
0.0251475
0.0251762
0.0252048
0.0252271
0.0252507
0.0252795
0.0253066
0.0253332
0.0253644
0.0253982
0.0254317
0.0254688
0.0255097
0.0255518
0.025597
0.0256467
0.0256987
0.0257531
0.0258128
0.0258744
0.0259383
0.0260053
0.0260768
0.0261464
0.0262215
0.0262965
0.0263766
0.0264513
0.0265386
0.0266163
0.0267093
0.0267879
0.0268934
0.0269715
0.0270896
0.0271691
0.0273031
0.0273799
0.0275332
0.0276072
0.0277756
0.0278464
0.028032
0.0280943
0.0282902
0.0283502
0.0285524
0.0286026
0.0288079
0.0288579
0.029056
0.0291002
0.0292937
0.029339
0.0295151
0.0295587
0.029723
0.0297654
0.0299057
0.0299466
0.0300684
0.0301012