# vtk DataFile Version 3.0
LBM output step 1660
ASCII
DATASET STRUCTURED_POINTS
DIMENSIONS 400 100 1
ORIGIN 0 0 0
SPACING 1 1 1
POINT_DATA 40000
SCALARS velocity_magnitude double 1
LOOKUP_TABLE default
0
0
0
0
0
0
0
0
0
0
0
0
0
0
0
0
0
0
0
0
0
0
0
0
0
0
0
0
0
0
0
0
0
0
0
0
0
0
0
0
0
0
0
0
0
0
0
0
0
0
0
0
0
0
0
0
0
0
0
0
0
0
0
0
0
0
0
0
0
0
0
0
0
0
0
0
0
0
0
0
0
0
0
0
0
0
0
0
0
0
0
0
0
0
0
0
0
0
0
0
0
0
0
0
0
0
0
0
0
0
0
0
0
0
0
0
0
0
0
0
0
0
0
0
0
0
0
0
0
0
0
0
0
0
0
0
0
0
0
0
0
0
0
0
0
0
0
0
0
0
0
0
0
0
0
0
0
0
0
0
0
0
0
0
0
0
0
0
0
0
0
0
0
0
0
0
0
0
0
0
0
0
0
0
0
0
0
0
0
0
0
0
0
0
0
0
0
0
0
0
0
0
0
0
0
0
0
0
0
0
0
0
0
0
0
0
0
0
0
0
0
0
0
0
0
0
0
0
0
0
0
0
0
0
0
0
0
0
0
0
0
0
0
0
0
0
0
0
0
0
0
0
0
0
0
0
0
0
0
0
0
0
0
0
0
0
0
0
0
0
0
0
0
0
0
0
0
0
0
0
0
0
0
0
0
0
0
0
0
0
0
0
0
0
0
0
0
0
0
0
0
0
0
0
0
0
0
0
0
0
0
0
0
0
0
0
0
0
0
0
0
0
0
0
0
0
0
0
0
0
0
0
0
0
0
0
0
0
0
0
0
0
0
0
0
0
0
0
0
0
0
0
0
0
0
0
0
0
0
0
0
0
0
0
0
0
0
0
0
0
0
0
0
0
0
0
0
0
0
0
0
0
0
0
0
0
0
0
0
0
0
0
0
0
0
0
0
0
0
0
0.04
0.018048
0.0119441
0.0146792
0.0178974
0.0178966
0.0145167
0.0132391
0.0130783
0.0131161
0.012714
0.0126185
0.012287
0.0120493
0.0118753
0.0118462
0.0116606
0.0115153
0.0113918
0.0113092
0.0111675
0.0110711
0.0109733
0.0108797
0.0107657
0.010684
0.010594
0.0105052
0.0104127
0.0103384
0.0102556
0.0101771
0.0101006
0.0100333
0.00996083
0.0098947
0.00983133
0.00977253
0.00971141
0.00965559
0.00960013
0.00954561
0.00948901
0.00943449
0.00937811
0.00932144
0.00926378
0.00920786
0.00915172
0.00909745
0.0090447
0.00899478
0.00894621
0.00889988
0.00885488
0.00881149
0.00876853
0.0087265
0.00868508
0.00864449
0.00860426
0.00856491
0.00852627
0.00848795
0.00844995
0.00841229
0.008375
0.00833781
0.00830207
0.00826741
0.00823498
0.00820463
0.00817818
0.00815343
0.00813239
0.00811321
0.00809735
0.00808096
0.00806805
0.00805483
0.00804434
0.0080321
0.00802479
0.00801583
0.00801063
0.00800291
0.00800117
0.00799519
0.00799339
0.00798659
0.0079853
0.00797597
0.00797081
0.00795692
0.00794771
0.00792659
0.00790972
0.00788011
0.00785478
0.0078141
0.00777832
0.00772662
0.00768067
0.0076185
0.00756485
0.00749559
0.00743658
0.00736222
0.00729942
0.00722005
0.00715273
0.00706896
0.00699849
0.00691212
0.00684078
0.00675418
0.00668229
0.00659461
0.00652101
0.00643161
0.00635649
0.00626862
0.00619703
0.00611571
0.00605141
0.00597918
0.00592112
0.00585409
0.00579862
0.00573504
0.00568183
0.00562479
0.00558075
0.00553706
0.00550647
0.00547806
0.00545919
0.00543889
0.00542234
0.0054015
0.00538002
0.00535361
0.00532741
0.00529997
0.00527565
0.00525508
0.00524188
0.00523587
0.00523883
0.00525062
0.00527135
0.00529966
0.00533507
0.00537644
0.00542233
0.00547136
0.00552259
0.00557476
0.00562652
0.00567699
0.00572547
0.00577112
0.00581324
0.00585167
0.00588626
0.00591678
0.00594332
0.00596623
0.0059857
0.00600195
0.00601535
0.00602634
0.00603513
0.00604191
0.006047
0.00605057
0.00605267
0.00605341
0.00605296
0.00605145
0.00604899
0.0060458
0.00604216
0.0060383
0.00603445
0.00603083
0.00602764
0.00602494
0.00602274
0.00602099
0.00601953
0.00601817
0.00601667
0.00601482
0.0060124
0.00600927
0.00600534
0.00600061
0.00599513
0.00598902
0.00598244
0.00597558
0.00596862
0.00596174
0.00595507
0.00594868
0.00594259
0.00593677
0.00593113
0.00592554
0.00591987
0.00591398
0.00590775
0.00590111
0.00589403
0.00588657
0.00587888
0.0058712
0.00586384
0.00585716
0.00585151
0.00584719
0.00584441
0.00584327
0.00584374
0.00584572
0.00584904
0.00585351
0.00585896
0.0058653
0.0058725
0.00588065
0.00588991
0.00590057
0.00591298
0.00592751
0.00594451
0.00596428
0.00598694
0.00601248
0.00604068
0.00607117
0.00610338
0.00613667
0.00617029
0.00620346
0.00623539
0.0062653
0.00629249
0.00631632
0.00633627
0.006352
0.00636331
0.00637023
0.00637297
0.00637191
0.00636753
0.00636036
0.00635094
0.00633971
0.00632703
0.00631314
0.00629821
0.00628236
0.00626572
0.00624844
0.00623074
0.0062129
0.00619526
0.00617819
0.0061621
0.00614739
0.00613448
0.00612376
0.00611567
0.00611058
0.00610882
0.00611061
0.00611596
0.00612466
0.00613619
0.00614975
0.00616432
0.00617872
0.00619178
0.00620247
0.00621002
0.00621406
0.00621464
0.00621226
0.00620775
0.00620222
0.00619685
0.00619279
0.00619098
0.00619207
0.0061964
0.00620399
0.0062146
0.00622774
0.00624278
0.00625891
0.00627522
0.00629067
0.00630415
0.00631451
0.00632069
0.0063218
0.00631725
0.00630691
0.00629117
0.00627094
0.00624758
0.00622274
0.00619812
0.00617528
0.00615539
0.00613912
0.00612648
0.00611686
0.00610908
0.0061016
0.00609277
0.00608109
0.0060654
0.00604507
0.00601999
0.00599058
0.00595773
0.00592276
0.00588739
0.00585361
0.00582352
0.00579919
0.00578242
0.00577458
0.00577658
0.00578874
0.00581088
0.0058422
0.00588131
0.00592624
0.00597454
0.00602355
0.00607077
0.00611425
0.00615284
0.00618623
0.00621471
0.0062387
0.00625832
0.00627302
0.00628162
0.00628268
0.00627502
0.00625833
0.00623348
0.0062025
0.00616822
0.00613357
0.0061009
0.00607148
0.00604524
0.00602094
0.00599661
0.00597014
0.00593983
0.00590489
0.00586564
0.00582345
0.00578055
0.00573966
0.00570357
0.00567481
0.00565535
0.00564647
0.00564867
0.00566176
0.00568491
0.00571683
0.00575592
0.0058004
0.00584845
0.00589833
0.00594847
0.00599748
0.00604424
0.00608783
0.00612763
0.00616323
0.00619442
0.00622118
0.00624371
0.00626219
0.00627701
0.00628866
0.00629768
0.0063045
0.00630913
0.00630913
0.04
0.0280895
0.0306238
0.0281727
0.0204522
0.0185055
0.0213276
0.0221975
0.0203957
0.019296
0.0191414
0.018914
0.0184878
0.0183163
0.0180772
0.0177402
0.0174902
0.017383
0.0171885
0.0169684
0.016808
0.0166838
0.0165138
0.0163629
0.0162426
0.0161204
0.0159815
0.0158675
0.0157647
0.0156557
0.0155476
0.0154577
0.0153704
0.0152822
0.0152025
0.0151345
0.0150677
0.015005
0.0149511
0.0149029
0.014855
0.0148106
0.0147699
0.0147293
0.0146875
0.0146469
0.0146071
0.0145668
0.0145273
0.0144903
0.0144556
0.0144231
0.0143936
0.0143676
0.0143444
0.0143234
0.0143053
0.0142899
0.0142768
0.0142658
0.014258
0.0142526
0.0142494
0.0142485
0.0142503
0.0142532
0.0142581
0.0142653
0.0142748
0.0142859
0.0143017
0.0143204
0.0143429
0.0143684
0.0144002
0.0144327
0.0144688
0.0145064
0.0145488
0.0145879
0.0146314
0.0146745
0.0147218
0.0147635
0.0148119
0.0148569
0.0149057
0.014946
0.0149936
0.0150321
0.0150737
0.0151022
0.0151374
0.0151565
0.0151788
0.0151827
0.0151924
0.0151794
0.0151712
0.0151387
0.0151125
0.0150589
0.0150137
0.0149404
0.0148786
0.0147886
0.0147132
0.0146086
0.0145219
0.0144044
0.0143058
0.0141768
0.0140706
0.0139322
0.01382
0.013678
0.0135622
0.0134141
0.0132955
0.0131451
0.0130232
0.0128733
0.0127571
0.0126145
0.0125058
0.0123751
0.012276
0.0121534
0.0120601
0.0119468
0.0118607
0.0117591
0.0116869
0.0116055
0.0115513
0.0114905
0.0114523
0.0114058
0.0113737
0.0113319
0.0112995
0.0112584
0.0112254
0.0111894
0.0111638
0.0111406
0.0111305
0.0111276
0.0111382
0.0111572
0.0111884
0.0112275
0.0112754
0.0113288
0.011388
0.0114499
0.0115139
0.0115781
0.0116419
0.0117035
0.0117623
0.0118176
0.011869
0.0119157
0.0119579
0.0119956
0.0120289
0.0120578
0.0120828
0.0121043
0.0121224
0.0121376
0.0121501
0.0121604
0.0121684
0.0121744
0.0121786
0.0121811
0.012182
0.0121815
0.0121799
0.0121774
0.0121742
0.0121706
0.012167
0.0121636
0.0121606
0.0121581
0.0121561
0.0121545
0.0121533
0.0121521
0.0121508
0.0121491
0.0121468
0.0121437
0.0121398
0.012135
0.0121295
0.0121234
0.0121168
0.01211
0.0121032
0.0120966
0.0120903
0.0120846
0.0120794
0.0120746
0.0120703
0.0120664
0.0120625
0.0120586
0.0120546
0.0120503
0.0120457
0.0120408
0.0120358
0.0120309
0.0120264
0.0120227
0.0120201
0.0120189
0.0120194
0.0120217
0.0120257
0.0120314
0.0120386
0.0120471
0.0120568
0.0120675
0.0120792
0.0120921
0.0121061
0.0121217
0.0121391
0.0121587
0.0121807
0.0122053
0.0122327
0.0122627
0.012295
0.0123292
0.0123647
0.0124008
0.0124367
0.0124717
0.0125049
0.0125357
0.0125632
0.0125869
0.0126064
0.0126213
0.0126316
0.0126372
0.0126385
0.0126359
0.0126298
0.012621
0.01261
0.0125972
0.0125832
0.0125681
0.0125521
0.0125356
0.0125184
0.0125009
0.0124831
0.0124655
0.0124482
0.0124318
0.0124165
0.0124028
0.0123913
0.0123822
0.0123762
0.0123734
0.0123743
0.0123788
0.012387
0.0123984
0.0124124
0.0124282
0.0124446
0.0124604
0.0124745
0.012486
0.0124941
0.0124985
0.0124993
0.0124971
0.0124926
0.012487
0.0124814
0.012477
0.0124746
0.0124751
0.0124786
0.0124854
0.0124951
0.0125072
0.0125211
0.0125359
0.0125505
0.0125638
0.0125747
0.0125821
0.0125848
0.0125823
0.012574
0.0125599
0.0125406
0.012517
0.0124906
0.0124629
0.0124355
0.0124099
0.0123872
0.0123679
0.012352
0.012339
0.0123276
0.0123165
0.0123041
0.0122892
0.0122707
0.0122481
0.0122213
0.0121909
0.0121579
0.0121236
0.0120898
0.0120584
0.0120317
0.0120115
0.0119996
0.0119973
0.0120053
0.0120237
0.0120523
0.0120898
0.0121348
0.0121851
0.012238
0.0122909
0.0123411
0.0123868
0.0124267
0.0124607
0.0124888
0.0125116
0.0125292
0.012541
0.0125461
0.0125432
0.0125313
0.0125105
0.0124817
0.0124472
0.0124098
0.0123725
0.0123377
0.0123065
0.0122789
0.0122536
0.0122288
0.0122025
0.0121731
0.0121401
0.0121038
0.0120659
0.0120286
0.0119948
0.0119673
0.0119484
0.0119402
0.0119436
0.011959
0.0119859
0.0120233
0.0120695
0.0121228
0.0121811
0.0122423
0.0123045
0.012366
0.0124253
0.0124812
0.0125328
0.0125795
0.0126209
0.0126569
0.0126875
0.012713
0.0127337
0.0127502
0.0127628
0.0127721
0.0127785
0.0127826
0.0127826
0.04
0.0282952
0.0269708
0.024489
0.0256011
0.0276114
0.0267115
0.0247964
0.0246943
0.0251326
0.0245532
0.0237487
0.023433
0.0232582
0.0228659
0.0225543
0.0223381
0.0220876
0.0218012
0.0216144
0.0214372
0.0212278
0.021028
0.0208814
0.0207229
0.020558
0.0204127
0.0202887
0.0201538
0.0200269
0.0199166
0.0198138
0.0197083
0.0196161
0.0195355
0.0194598
0.0193888
0.0193311
0.0192809
0.0192349
0.0191952
0.0191634
0.0191336
0.0191055
0.0190803
0.0190572
0.0190337
0.0190115
0.0189916
0.018974
0.0189583
0.0189462
0.018938
0.0189332
0.0189316
0.0189336
0.0189393
0.0189479
0.0189595
0.0189749
0.0189941
0.0190162
0.0190419
0.0190716
0.0191044
0.0191396
0.0191789
0.0192214
0.0192669
0.0193163
0.0193714
0.0194298
0.0194935
0.0195622
0.0196362
0.0197117
0.0197927
0.0198758
0.0199615
0.0200461
0.0201367
0.0202255
0.0203167
0.0204059
0.0205016
0.020591
0.0206838
0.0207711
0.0208636
0.0209438
0.0210272
0.0210989
0.0211736
0.0212295
0.0212886
0.0213283
0.0213704
0.0213871
0.0214077
0.0214016
0.0213989
0.0213652
0.0213391
0.0212811
0.0212318
0.0211499
0.0210828
0.02098
0.0208938
0.0207723
0.0206709
0.0205296
0.0204139
0.0202597
0.0201332
0.0199663
0.0198334
0.0196573
0.0195161
0.0193326
0.0191887
0.0190016
0.0188595
0.0186784
0.0185445
0.0183716
0.0182475
0.0180842
0.0179671
0.0178127
0.0177053
0.0175652
0.0174726
0.0173539
0.0172817
0.0171862
0.017131
0.017053
0.0170066
0.0169368
0.0168915
0.0168264
0.0167825
0.0167251
0.0166891
0.0166476
0.0166277
0.0166082
0.0166095
0.0166144
0.0166368
0.0166635
0.0167035
0.0167466
0.0167985
0.0168516
0.0169095
0.0169665
0.0170248
0.0170806
0.0171351
0.0171858
0.0172335
0.0172769
0.0173164
0.0173513
0.0173825
0.0174095
0.017433
0.0174529
0.0174699
0.0174842
0.0174959
0.0175055
0.0175132
0.0175192
0.0175235
0.0175265
0.0175281
0.0175287
0.0175283
0.0175272
0.0175256
0.0175238
0.017522
0.0175203
0.0175191
0.0175182
0.0175177
0.0175176
0.0175177
0.0175177
0.0175176
0.0175171
0.0175161
0.0175143
0.0175118
0.0175085
0.0175046
0.0175001
0.0174953
0.0174902
0.0174851
0.0174802
0.0174756
0.0174714
0.0174676
0.0174643
0.0174613
0.0174585
0.0174558
0.0174529
0.0174499
0.0174465
0.0174429
0.0174389
0.0174349
0.0174309
0.0174273
0.0174245
0.0174226
0.0174221
0.0174232
0.0174259
0.0174303
0.0174362
0.0174435
0.0174521
0.0174617
0.0174724
0.017484
0.0174966
0.0175105
0.0175258
0.017543
0.0175623
0.0175839
0.0176081
0.017635
0.0176644
0.017696
0.0177295
0.0177643
0.0177997
0.0178349
0.0178692
0.0179018
0.017932
0.0179591
0.0179826
0.0180019
0.0180168
0.0180272
0.0180332
0.018035
0.0180331
0.0180279
0.01802
0.0180099
0.0179982
0.0179853
0.0179715
0.017957
0.017942
0.0179266
0.0179108
0.0178948
0.0178788
0.017863
0.0178477
0.0178333
0.0178204
0.0178093
0.0178007
0.0177949
0.0177925
0.0177937
0.0177986
0.017807
0.0178185
0.0178324
0.017848
0.017864
0.0178796
0.0178936
0.0179052
0.0179138
0.0179192
0.0179212
0.0179204
0.0179172
0.0179127
0.0179079
0.0179038
0.0179014
0.0179014
0.0179044
0.0179106
0.0179199
0.0179318
0.0179457
0.0179605
0.0179752
0.0179886
0.0179995
0.018007
0.01801
0.0180081
0.018001
0.0179888
0.017972
0.0179515
0.0179285
0.0179044
0.0178803
0.0178575
0.0178369
0.0178189
0.0178037
0.0177907
0.0177792
0.017768
0.0177561
0.0177421
0.0177254
0.0177054
0.0176819
0.0176554
0.0176265
0.0175965
0.0175668
0.0175393
0.0175157
0.0174981
0.0174879
0.0174866
0.0174948
0.0175129
0.0175405
0.0175767
0.0176202
0.0176688
0.0177202
0.0177718
0.0178213
0.0178668
0.0179072
0.017942
0.0179716
0.017996
0.0180155
0.0180296
0.0180373
0.0180376
0.0180295
0.0180129
0.0179889
0.0179594
0.0179271
0.0178946
0.0178643
0.0178372
0.0178135
0.017792
0.0177711
0.0177489
0.0177239
0.0176954
0.017664
0.0176308
0.0175981
0.0175686
0.0175449
0.0175293
0.0175238
0.0175294
0.0175466
0.0175748
0.0176132
0.0176602
0.0177141
0.0177728
0.0178345
0.0178971
0.0179591
0.0180189
0.0180753
0.0181274
0.0181746
0.0182164
0.0182528
0.0182838
0.0183095
0.0183304
0.0183468
0.0183592
0.0183681
0.0183739
0.0183774
0.0183774
0.04
0.0299936
0.0313623
0.0317476
0.031849
0.029458
0.0278158
0.0287355
0.0295785
0.0284431
0.027342
0.0273784
0.0273993
0.0268392
0.0263587
0.0262186
0.0259777
0.0256319
0.025392
0.0252274
0.0249761
0.0247432
0.0245777
0.0244143
0.024211
0.0240469
0.02391
0.0237633
0.0236102
0.0234894
0.0233748
0.0232562
0.0231469
0.0230587
0.0229713
0.0228888
0.02282
0.0227645
0.0227113
0.0226674
0.0226347
0.0226087
0.022585
0.0225683
0.0225562
0.022546
0.022537
0.0225321
0.0225292
0.0225285
0.0225307
0.0225372
0.0225469
0.0225602
0.0225769
0.0225977
0.0226219
0.022649
0.0226796
0.0227145
0.022753
0.0227949
0.0228413
0.0228922
0.0229464
0.0230044
0.0230672
0.0231335
0.0232041
0.0232797
0.0233608
0.0234463
0.0235384
0.0236353
0.0237369
0.0238426
0.0239537
0.0240656
0.0241809
0.0242985
0.0244196
0.0245384
0.0246621
0.0247862
0.0249128
0.0250346
0.0251622
0.0252854
0.0254091
0.0255237
0.0256426
0.0257495
0.0258552
0.025946
0.0260391
0.0261121
0.0261841
0.0262346
0.0262857
0.0263098
0.0263348
0.0263316
0.0263305
0.0262985
0.0262727
0.0262141
0.026165
0.0260821
0.0260115
0.0259039
0.0258137
0.0256836
0.0255739
0.0254243
0.0253009
0.025133
0.024997
0.0248157
0.0246688
0.0244728
0.02432
0.0241171
0.0239624
0.0237591
0.0236116
0.0234129
0.0232726
0.0230805
0.0229487
0.0227633
0.0226411
0.022469
0.0223627
0.0222105
0.0221245
0.0219954
0.0219273
0.0218156
0.0217569
0.0216557
0.0215991
0.0215039
0.0214495
0.0213648
0.0213183
0.0212514
0.0212216
0.0211795
0.0211707
0.0211555
0.0211689
0.0211781
0.0212093
0.0212378
0.0212817
0.0213222
0.0213725
0.0214192
0.0214707
0.0215174
0.0215659
0.0216093
0.0216515
0.0216886
0.0217235
0.0217535
0.0217805
0.0218033
0.0218233
0.0218397
0.0218536
0.0218649
0.0218742
0.0218813
0.0218869
0.021891
0.0218938
0.0218955
0.0218963
0.0218963
0.0218957
0.0218947
0.0218935
0.0218922
0.0218911
0.0218903
0.0218898
0.0218898
0.0218902
0.0218908
0.0218917
0.0218925
0.0218931
0.0218933
0.021893
0.0218921
0.0218906
0.0218883
0.0218855
0.0218821
0.0218784
0.0218744
0.0218705
0.0218666
0.0218631
0.0218598
0.0218568
0.0218542
0.0218518
0.0218495
0.0218472
0.0218447
0.0218419
0.0218388
0.0218352
0.0218314
0.0218274
0.0218235
0.0218199
0.0218171
0.0218152
0.0218146
0.0218154
0.0218178
0.0218219
0.0218275
0.0218345
0.0218428
0.0218523
0.0218628
0.0218744
0.0218872
0.0219013
0.0219171
0.0219348
0.0219548
0.0219773
0.0220023
0.0220301
0.0220603
0.0220928
0.0221271
0.0221627
0.0221989
0.0222349
0.02227
0.0223034
0.0223344
0.0223622
0.0223863
0.0224063
0.022422
0.0224332
0.0224401
0.0224428
0.0224418
0.0224376
0.0224306
0.0224215
0.0224108
0.0223988
0.0223861
0.0223728
0.0223591
0.0223451
0.0223307
0.0223162
0.0223015
0.0222867
0.0222723
0.0222585
0.022246
0.0222353
0.0222269
0.0222216
0.0222196
0.0222214
0.0222269
0.022236
0.0222481
0.0222625
0.0222783
0.0222946
0.0223105
0.022325
0.0223374
0.0223472
0.022354
0.022358
0.0223591
0.022358
0.0223554
0.022352
0.022349
0.0223472
0.0223476
0.0223508
0.0223571
0.0223667
0.0223791
0.0223935
0.0224089
0.0224243
0.0224382
0.0224495
0.0224573
0.0224608
0.0224596
0.0224536
0.0224432
0.0224288
0.0224113
0.0223915
0.0223706
0.0223494
0.0223288
0.0223095
0.0222919
0.022276
0.0222616
0.0222482
0.0222351
0.0222216
0.0222069
0.0221903
0.0221713
0.0221497
0.0221259
0.0221002
0.0220737
0.0220476
0.0220233
0.0220027
0.0219874
0.021979
0.0219787
0.0219874
0.0220053
0.0220323
0.0220676
0.0221097
0.0221568
0.0222067
0.022257
0.0223056
0.0223505
0.0223907
0.0224257
0.0224554
0.0224801
0.0224997
0.0225137
0.0225215
0.0225219
0.0225144
0.0224989
0.0224762
0.0224481
0.022417
0.0223854
0.0223553
0.0223281
0.0223037
0.0222814
0.0222596
0.0222368
0.0222115
0.0221832
0.0221522
0.0221198
0.022088
0.0220594
0.0220366
0.0220219
0.0220172
0.0220236
0.0220414
0.0220703
0.0221095
0.0221573
0.0222121
0.0222718
0.0223345
0.0223983
0.0224614
0.0225223
0.0225798
0.0226329
0.0226809
0.0227235
0.0227604
0.0227917
0.0228176
0.0228384
0.0228546
0.0228666
0.0228751
0.0228807
0.0228837
0.0228837
0.04
0.0311979
0.0323128
0.0309687
0.0303322
0.0306792
0.0319211
0.0314017
0.0299354
0.0297272
0.0304472
0.0301932
0.0293226
0.0290188
0.0290844
0.0288186
0.0283967
0.0282001
0.0280499
0.0277895
0.0275478
0.0273991
0.0272149
0.027004
0.0268377
0.0267035
0.0265377
0.0263808
0.0262549
0.0261355
0.026003
0.0258902
0.0257933
0.0256969
0.0256018
0.0255259
0.025458
0.0253934
0.025338
0.0252977
0.0252623
0.0252332
0.0252136
0.0252028
0.0251944
0.0251914
0.0251942
0.0252008
0.0252093
0.0252226
0.0252398
0.0252604
0.0252841
0.0253119
0.0253431
0.0253775
0.0254146
0.0254549
0.0254988
0.025546
0.0255963
0.0256512
0.0257107
0.0257737
0.0258409
0.0259133
0.0259898
0.0260701
0.0261561
0.0262474
0.0263436
0.0264457
0.0265543
0.0266674
0.0267861
0.0269096
0.0270369
0.0271661
0.0273004
0.0274361
0.0275736
0.0277127
0.0278572
0.028
0.0281449
0.0282909
0.0284406
0.0285842
0.0287295
0.0288711
0.0290128
0.0291428
0.0292728
0.0293921
0.0295086
0.0296078
0.0297054
0.0297852
0.0298611
0.0299137
0.0299647
0.0299916
0.0300155
0.0300123
0.0300118
0.0299822
0.0299552
0.029899
0.029851
0.0297679
0.0296951
0.0295887
0.0294961
0.0293636
0.0292528
0.0291017
0.0289737
0.0288014
0.0286612
0.0284716
0.028319
0.0281172
0.0279621
0.0277536
0.0276007
0.0273929
0.0272463
0.0270393
0.0268998
0.0266973
0.0265676
0.0263741
0.0262604
0.0260845
0.0259907
0.0258342
0.0257583
0.0256182
0.0255516
0.0254205
0.0253571
0.0252328
0.0251712
0.0250579
0.025005
0.0249108
0.0248734
0.024806
0.0247899
0.0247513
0.0247566
0.0247451
0.0247686
0.0247781
0.0248141
0.0248385
0.0248808
0.0249129
0.0249568
0.0249913
0.0250321
0.0250648
0.0251002
0.0251284
0.0251567
0.0251792
0.0252006
0.025217
0.0252318
0.0252429
0.0252524
0.025259
0.0252642
0.0252676
0.0252698
0.0252707
0.0252709
0.0252702
0.0252691
0.0252675
0.0252657
0.0252639
0.0252622
0.0252606
0.0252595
0.0252587
0.0252584
0.0252585
0.0252591
0.02526
0.025261
0.025262
0.0252628
0.0252633
0.0252633
0.0252628
0.0252618
0.0252602
0.025258
0.0252555
0.0252527
0.0252497
0.0252466
0.0252437
0.025241
0.0252386
0.0252364
0.0252345
0.0252327
0.0252309
0.025229
0.0252269
0.0252244
0.0252214
0.025218
0.0252143
0.0252104
0.0252065
0.025203
0.0252001
0.0251981
0.0251973
0.0251979
0.0252
0.0252037
0.0252089
0.0252155
0.0252234
0.0252325
0.0252427
0.0252541
0.0252667
0.0252809
0.0252969
0.0253149
0.0253353
0.0253582
0.0253837
0.0254119
0.0254425
0.0254753
0.0255099
0.0255456
0.025582
0.0256181
0.0256533
0.0256867
0.0257178
0.0257456
0.0257699
0.02579
0.0258059
0.0258174
0.0258247
0.025828
0.0258277
0.0258242
0.0258181
0.0258099
0.0258002
0.0257894
0.0257779
0.025766
0.0257538
0.0257414
0.0257287
0.0257158
0.0257025
0.0256891
0.0256758
0.0256629
0.025651
0.0256408
0.0256329
0.0256279
0.0256263
0.0256285
0.0256343
0.0256436
0.0256557
0.0256701
0.0256858
0.0257019
0.0257176
0.0257322
0.0257449
0.0257553
0.0257632
0.0257684
0.025771
0.0257714
0.02577
0.0257677
0.0257652
0.0257635
0.0257636
0.0257662
0.0257718
0.0257806
0.0257922
0.0258059
0.0258206
0.0258351
0.0258482
0.0258586
0.0258655
0.0258683
0.0258668
0.025861
0.0258515
0.0258387
0.0258233
0.0258061
0.0257876
0.0257686
0.0257494
0.0257305
0.0257122
0.0256946
0.0256776
0.0256612
0.0256451
0.0256289
0.0256122
0.0255947
0.0255759
0.0255557
0.025534
0.0255111
0.0254878
0.0254648
0.0254435
0.0254253
0.0254118
0.0254042
0.0254039
0.0254116
0.0254278
0.0254523
0.0254844
0.0255229
0.0255661
0.025612
0.0256583
0.0257032
0.0257449
0.0257823
0.025815
0.0258427
0.0258654
0.025883
0.025895
0.0259009
0.0258999
0.0258913
0.0258754
0.0258529
0.0258253
0.0257947
0.0257634
0.0257333
0.0257054
0.02568
0.0256565
0.0256335
0.0256097
0.0255839
0.0255556
0.0255251
0.0254936
0.025463
0.0254358
0.0254143
0.0254009
0.0253973
0.0254047
0.0254233
0.025453
0.0254927
0.0255412
0.0255965
0.0256568
0.0257201
0.0257844
0.0258481
0.0259095
0.0259674
0.0260208
0.0260691
0.0261117
0.0261486
0.0261797
0.0262053
0.0262256
0.0262413
0.0262527
0.0262607
0.0262656
0.026268
0.026268
0.04
0.0291762
0.0296727
0.0309522
0.0317482
0.0316601
0.0314268
0.0309319
0.0313567
0.0318214
0.0313413
0.0306241
0.0307255
0.030937
0.0305774
0.0301234
0.0300541
0.0300151
0.0297473
0.0294991
0.0293876
0.0292462
0.0290358
0.0288801
0.0287611
0.0286087
0.028449
0.0283333
0.0282195
0.0280898
0.0279729
0.0278805
0.027782
0.0276831
0.0275998
0.0275278
0.0274528
0.0273865
0.0273334
0.0272871
0.0272439
0.0272128
0.0271915
0.0271758
0.0271663
0.0271667
0.0271728
0.0271834
0.0271997
0.0272222
0.0272484
0.0272787
0.0273131
0.0273512
0.0273921
0.0274357
0.0274814
0.0275302
0.0275816
0.0276354
0.0276927
0.0277546
0.02782
0.0278892
0.0279637
0.0280429
0.0281259
0.028214
0.028308
0.0284068
0.0285113
0.028622
0.0287385
0.0288602
0.0289878
0.0291191
0.0292544
0.0293938
0.0295366
0.02968
0.0298276
0.0299788
0.0301316
0.0302845
0.0304431
0.0306027
0.0307619
0.0309194
0.0310811
0.0312381
0.0313917
0.0315396
0.0316879
0.0318246
0.0319561
0.032077
0.0321945
0.0322945
0.032389
0.0324672
0.0325391
0.0325895
0.0326362
0.0326608
0.032681
0.0326783
0.0326753
0.0326458
0.0326179
0.0325634
0.032512
0.0324301
0.0323571
0.0322507
0.0321555
0.0320261
0.0319135
0.0317601
0.0316301
0.0314574
0.0313134
0.0311226
0.0309722
0.0307716
0.0306197
0.0304136
0.0302661
0.0300572
0.0299149
0.029706
0.0295734
0.02937
0.0292522
0.0290613
0.0289632
0.0287879
0.0287065
0.0285439
0.0284729
0.028317
0.0282487
0.0280985
0.0280329
0.0278923
0.0278344
0.0277134
0.0276708
0.0275761
0.0275542
0.0274903
0.027489
0.0274535
0.0274702
0.0274583
0.0274867
0.0274916
0.0275265
0.0275413
0.0275771
0.0275967
0.0276297
0.0276492
0.0276771
0.0276942
0.0277155
0.0277283
0.0277432
0.0277515
0.0277603
0.0277643
0.0277683
0.027769
0.0277692
0.0277674
0.0277654
0.027762
0.0277585
0.0277544
0.0277506
0.0277465
0.0277427
0.0277391
0.0277361
0.0277334
0.0277314
0.0277299
0.027729
0.0277285
0.0277285
0.0277288
0.0277293
0.0277298
0.0277302
0.0277303
0.0277301
0.0277294
0.0277284
0.0277269
0.027725
0.0277228
0.0277204
0.0277179
0.0277154
0.027713
0.0277107
0.0277087
0.0277069
0.0277052
0.0277036
0.0277018
0.0276999
0.0276976
0.0276948
0.0276915
0.0276878
0.0276836
0.0276792
0.0276749
0.0276708
0.0276673
0.0276646
0.027663
0.0276627
0.0276637
0.0276663
0.0276703
0.0276757
0.0276823
0.0276902
0.0276992
0.0277096
0.0277213
0.0277347
0.02775
0.0277675
0.0277874
0.0278099
0.0278351
0.0278628
0.027893
0.0279253
0.0279593
0.0279945
0.0280302
0.0280658
0.0281004
0.0281333
0.0281637
0.0281911
0.0282148
0.0282346
0.0282502
0.0282615
0.0282688
0.0282722
0.0282722
0.0282691
0.0282636
0.0282561
0.0282472
0.0282373
0.0282268
0.0282159
0.0282049
0.0281937
0.0281822
0.0281704
0.0281582
0.0281458
0.0281331
0.0281208
0.0281092
0.028099
0.028091
0.0280858
0.0280839
0.0280856
0.0280908
0.0280993
0.0281105
0.0281239
0.0281385
0.0281536
0.0281685
0.0281824
0.0281948
0.0282052
0.0282135
0.0282194
0.0282228
0.0282241
0.0282234
0.0282214
0.0282189
0.0282168
0.028216
0.0282174
0.0282215
0.0282287
0.0282385
0.0282504
0.0282632
0.0282759
0.0282871
0.0282957
0.028301
0.0283025
0.0283002
0.0282943
0.0282852
0.0282736
0.02826
0.0282447
0.0282282
0.0282106
0.0281921
0.0281729
0.0281531
0.0281329
0.0281125
0.0280922
0.0280722
0.0280525
0.0280333
0.0280143
0.0279952
0.0279758
0.0279559
0.0279356
0.0279151
0.0278951
0.0278765
0.0278604
0.027848
0.0278406
0.0278393
0.0278451
0.0278583
0.027879
0.0279066
0.0279401
0.027978
0.0280185
0.0280597
0.0280998
0.0281374
0.0281713
0.028201
0.0282259
0.028246
0.0282611
0.0282706
0.0282743
0.0282715
0.0282619
0.0282455
0.0282232
0.0281961
0.0281661
0.028135
0.0281045
0.0280758
0.028049
0.028024
0.0279995
0.0279745
0.0279481
0.0279196
0.0278895
0.0278587
0.0278291
0.0278029
0.0277823
0.0277696
0.0277664
0.0277739
0.0277925
0.0278219
0.0278613
0.0279093
0.0279642
0.0280242
0.0280872
0.0281513
0.0282148
0.0282761
0.0283339
0.0283873
0.0284354
0.0284779
0.0285144
0.0285451
0.0285702
0.02859
0.028605
0.0286158
0.0286231
0.0286273
0.0286292
0.0286292
0.04
0.0290559
0.0297682
0.0303639
0.0306026
0.0307199
0.0309595
0.0314813
0.0318903
0.0313555
0.0310989
0.0315877
0.0317883
0.0312564
0.030987
0.0311953
0.0311948
0.0308521
0.030679
0.0306966
0.0305824
0.0303686
0.0302587
0.0301907
0.0300482
0.0299063
0.0298206
0.0297268
0.029601
0.0295014
0.0294247
0.0293329
0.0292355
0.0291614
0.029092
0.0290141
0.0289428
0.0288867
0.0288302
0.0287745
0.0287305
0.028697
0.0286655
0.0286424
0.0286311
0.0286276
0.0286292
0.0286404
0.0286599
0.0286848
0.0287148
0.0287514
0.0287922
0.028836
0.0288827
0.0289319
0.028983
0.0290362
0.0290907
0.0291479
0.0292089
0.0292728
0.0293398
0.0294123
0.0294896
0.0295703
0.0296561
0.029748
0.0298445
0.0299459
0.0300541
0.0301681
0.0302872
0.0304123
0.0305426
0.0306767
0.0308157
0.0309581
0.0311028
0.031251
0.0314041
0.0315581
0.0317145
0.0318757
0.0320408
0.0322042
0.0323703
0.0325394
0.0327083
0.0328716
0.0330359
0.0331974
0.033354
0.0335013
0.0336463
0.0337824
0.0339111
0.0340266
0.0341365
0.0342325
0.0343197
0.0343897
0.0344538
0.0345002
0.0345384
0.0345577
0.034574
0.0345685
0.0345582
0.0345278
0.0344966
0.0344382
0.0343818
0.0343013
0.0342233
0.0341146
0.0340172
0.033887
0.0337682
0.0336139
0.0334816
0.0333077
0.0331631
0.0329758
0.0328285
0.0326308
0.0324839
0.0322805
0.0321381
0.0319306
0.0317963
0.0315911
0.0314714
0.0312736
0.031172
0.0309856
0.0309007
0.0307219
0.0306468
0.0304723
0.0304004
0.030228
0.0301592
0.0299954
0.029934
0.0297876
0.0297417
0.0296219
0.0295954
0.0295063
0.0295008
0.0294413
0.0294524
0.0294184
0.0294411
0.0294253
0.0294534
0.0294502
0.0294788
0.0294816
0.0295074
0.0295127
0.029533
0.0295375
0.0295518
0.0295539
0.0295617
0.0295608
0.0295633
0.0295594
0.0295573
0.0295511
0.029546
0.0295381
0.0295311
0.0295228
0.0295151
0.0295069
0.0294994
0.0294921
0.0294856
0.0294794
0.0294742
0.0294696
0.0294658
0.0294627
0.0294603
0.0294585
0.0294571
0.0294561
0.0294553
0.0294545
0.0294537
0.0294528
0.0294517
0.0294502
0.0294484
0.0294464
0.029444
0.0294415
0.0294389
0.0294361
0.0294335
0.0294309
0.0294285
0.0294263
0.0294242
0.0294222
0.0294202
0.0294179
0.0294154
0.0294124
0.0294089
0.0294048
0.0294001
0.0293949
0.0293895
0.0293841
0.0293788
0.0293741
0.0293701
0.029367
0.0293651
0.0293645
0.0293653
0.0293674
0.0293709
0.0293756
0.0293815
0.0293887
0.0293972
0.0294073
0.0294192
0.0294331
0.0294494
0.0294681
0.0294896
0.0295137
0.0295403
0.0295694
0.0296005
0.0296333
0.0296673
0.0297018
0.029736
0.0297694
0.0298011
0.0298303
0.0298566
0.0298792
0.0298979
0.0299126
0.0299232
0.0299298
0.0299329
0.0299326
0.0299296
0.0299243
0.0299171
0.0299087
0.0298993
0.0298895
0.0298793
0.029869
0.0298585
0.0298478
0.0298367
0.0298252
0.0298132
0.0298011
0.029789
0.0297775
0.0297673
0.029759
0.0297532
0.0297505
0.0297511
0.029755
0.0297621
0.0297718
0.0297835
0.0297966
0.0298102
0.0298238
0.0298367
0.0298483
0.0298583
0.0298664
0.0298723
0.0298759
0.0298774
0.0298769
0.029875
0.0298723
0.0298696
0.0298679
0.0298679
0.0298703
0.0298753
0.0298827
0.029892
0.0299022
0.0299122
0.0299208
0.0299271
0.0299304
0.0299303
0.0299269
0.0299206
0.0299117
0.0299008
0.0298882
0.0298742
0.0298588
0.0298419
0.0298235
0.0298035
0.029782
0.029759
0.0297351
0.0297108
0.0296868
0.0296635
0.0296415
0.0296206
0.0296009
0.029582
0.0295636
0.0295455
0.0295278
0.0295106
0.0294945
0.0294804
0.0294692
0.0294619
0.0294597
0.0294634
0.0294735
0.0294901
0.0295129
0.0295409
0.029573
0.0296075
0.029643
0.0296778
0.0297106
0.0297405
0.0297666
0.0297883
0.0298053
0.0298173
0.029824
0.0298249
0.0298198
0.0298086
0.0297914
0.0297688
0.029742
0.0297123
0.0296814
0.0296505
0.0296208
0.0295926
0.0295658
0.0295396
0.0295131
0.0294855
0.0294565
0.0294263
0.029396
0.029367
0.0293415
0.0293216
0.0293094
0.0293064
0.0293138
0.0293321
0.029361
0.0293998
0.0294471
0.0295013
0.0295605
0.0296229
0.0296864
0.0297495
0.0298104
0.0298678
0.0299208
0.0299686
0.0300107
0.0300469
0.0300771
0.0301017
0.0301208
0.0301352
0.0301454
0.0301521
0.0301559
0.0301575
0.0301575
0.04
0.0297622
0.0303449
0.0300319
0.0304088
0.0308667
0.0310446
0.0310838
0.0310782
0.0312493
0.0317147
0.0316664
0.0313086
0.0313613
0.0316949
0.0315987
0.0312941
0.0312827
0.0314074
0.0312922
0.0311037
0.0310694
0.031061
0.0309432
0.0308296
0.0307852
0.0307222
0.0306201
0.0305445
0.0304931
0.0304185
0.0303381
0.0302796
0.0302241
0.0301542
0.0300907
0.0300387
0.0299833
0.0299238
0.0298744
0.0298312
0.0297879
0.0297503
0.0297246
0.0297055
0.0296925
0.0296902
0.0296988
0.029714
0.0297372
0.029769
0.0298069
0.0298491
0.0298957
0.0299452
0.0299967
0.0300498
0.0301041
0.0301596
0.030218
0.0302789
0.030342
0.0304097
0.0304825
0.0305586
0.0306392
0.0307263
0.0308179
0.030914
0.0310165
0.0311252
0.0312388
0.0313583
0.0314834
0.0316132
0.0317478
0.0318867
0.0320282
0.032174
0.0323243
0.0324768
0.0326314
0.0327925
0.0329568
0.0331216
0.0332891
0.0334626
0.0336352
0.0338055
0.0339768
0.0341497
0.0343159
0.034477
0.0346351
0.0347898
0.0349329