# vtk DataFile Version 3.0
LBM output step 1320
ASCII
DATASET STRUCTURED_POINTS
DIMENSIONS 400 100 1
ORIGIN 0 0 0
SPACING 1 1 1
POINT_DATA 40000
SCALARS velocity_magnitude double 1
LOOKUP_TABLE default
0
0
0
0
0
0
0
0
0
0
0
0
0
0
0
0
0
0
0
0
0
0
0
0
0
0
0
0
0
0
0
0
0
0
0
0
0
0
0
0
0
0
0
0
0
0
0
0
0
0
0
0
0
0
0
0
0
0
0
0
0
0
0
0
0
0
0
0
0
0
0
0
0
0
0
0
0
0
0
0
0
0
0
0
0
0
0
0
0
0
0
0
0
0
0
0
0
0
0
0
0
0
0
0
0
0
0
0
0
0
0
0
0
0
0
0
0
0
0
0
0
0
0
0
0
0
0
0
0
0
0
0
0
0
0
0
0
0
0
0
0
0
0
0
0
0
0
0
0
0
0
0
0
0
0
0
0
0
0
0
0
0
0
0
0
0
0
0
0
0
0
0
0
0
0
0
0
0
0
0
0
0
0
0
0
0
0
0
0
0
0
0
0
0
0
0
0
0
0
0
0
0
0
0
0
0
0
0
0
0
0
0
0
0
0
0
0
0
0
0
0
0
0
0
0
0
0
0
0
0
0
0
0
0
0
0
0
0
0
0
0
0
0
0
0
0
0
0
0
0
0
0
0
0
0
0
0
0
0
0
0
0
0
0
0
0
0
0
0
0
0
0
0
0
0
0
0
0
0
0
0
0
0
0
0
0
0
0
0
0
0
0
0
0
0
0
0
0
0
0
0
0
0
0
0
0
0
0
0
0
0
0
0
0
0
0
0
0
0
0
0
0
0
0
0
0
0
0
0
0
0
0
0
0
0
0
0
0
0
0
0
0
0
0
0
0
0
0
0
0
0
0
0
0
0
0
0
0
0
0
0
0
0
0
0
0
0
0
0
0
0
0
0
0
0
0
0
0
0
0
0
0
0
0
0
0
0
0
0
0
0
0
0
0
0
0
0
0
0
0
0.04
0.0138891
0.0082559
0.0127017
0.0152109
0.0148154
0.0117401
0.0110525
0.0110629
0.0110943
0.01075
0.0107534
0.0104972
0.0103309
0.0102168
0.0102201
0.0100638
0.00996207
0.00987554
0.00981344
0.00969058
0.00961575
0.0095332
0.00945069
0.00935009
0.00928203
0.009203
0.00912714
0.00905167
0.00899604
0.0089339
0.00888127
0.00883632
0.00880605
0.00877878
0.00876978
0.00877787
0.00880851
0.00886048
0.00894607
0.00906371
0.00921727
0.00940611
0.00963298
0.00989042
0.0101745
0.0104764
0.010787
0.0110923
0.0113802
0.0116371
0.0118494
0.0120064
0.0120999
0.0121286
0.012094
0.0120091
0.0118863
0.0117491
0.0116105
0.0114917
0.0113926
0.0113235
0.0112696
0.0112365
0.0112055
0.0111891
0.0111695
0.0111651
0.011154
0.0111548
0.0111379
0.0111249
0.0110861
0.0110524
0.0109972
0.0109585
0.0109063
0.0108781
0.0108367
0.0108169
0.010777
0.0107541
0.0107072
0.010676
0.0106225
0.0105899
0.0105412
0.0105169
0.0104805
0.0104688
0.0104447
0.0104421
0.0104274
0.0104318
0.010426
0.0104363
0.0104338
0.0104403
0.0104305
0.0104208
0.010391
0.0103575
0.0103065
0.0102518
0.0101832
0.0101139
0.0100374
0.0099616
0.00988256
0.00980759
0.00973107
0.00965566
0.00957841
0.00950032
0.00941768
0.0093326
0.00924465
0.00915404
0.00906098
0.00896784
0.00887348
0.00877841
0.00868445
0.00859135
0.00849849
0.00840777
0.00831943
0.0082327
0.00814819
0.00806634
0.0079862
0.00790752
0.00783062
0.00775552
0.00768232
0.00761163
0.00754389
0.00747945
0.0074185
0.00736092
0.00730653
0.00725538
0.00720708
0.00716122
0.00711781
0.00707686
0.00703813
0.00700172
0.00696807
0.00693771
0.00691135
0.00688995
0.00687473
0.0068671
0.00686815
0.00687885
0.00689997
0.00693173
0.0069734
0.00702367
0.00708075
0.00714218
0.00720497
0.00726629
0.00732366
0.00737491
0.00741858
0.00745402
0.0074813
0.00750113
0.00751452
0.00752269
0.00752694
0.00752831
0.00752768
0.00752582
0.00752329
0.00752035
0.00751731
0.00751441
0.0075117
0.00750913
0.00750663
0.00750419
0.00750163
0.00749875
0.00749555
0.00749207
0.00748832
0.00748439
0.00748046
0.00747662
0.0074728
0.00746884
0.00746457
0.00745975
0.00745412
0.00744752
0.00744
0.00743166
0.00742265
0.00741324
0.00740368
0.00739417
0.00738486
0.00737592
0.00736749
0.00735972
0.00735275
0.00734678
0.00734195
0.00733833
0.00733595
0.00733475
0.0073346
0.00733531
0.00733669
0.00733861
0.00734097
0.00734374
0.00734697
0.00735072
0.00735501
0.00735977
0.00736477
0.00736963
0.00737381
0.00737679
0.00737811
0.00737759
0.00737541
0.00737219
0.00736889
0.00736669
0.00736678
0.00737005
0.00737691
0.00738712
0.00739978
0.00741348
0.00742655
0.00743735
0.0074446
0.0074476
0.00744633
0.00744131
0.00743348
0.00742386
0.00741337
0.00740259
0.00739179
0.00738098
0.00737006
0.00735892
0.00734752
0.00733583
0.00732386
0.00731148
0.00729853
0.00728478
0.00727006
0.00725434
0.00723769
0.0072203
0.00720241
0.00718419
0.00716573
0.00714708
0.00712825
0.00710934
0.0070905
0.00707206
0.00705446
0.00703833
0.00702445
0.00701369
0.0070069
0.00700477
0.0070077
0.00701566
0.00702823
0.00704461
0.00706377
0.00708458
0.0071059
0.00712672
0.0071462
0.00716373
0.007179
0.00719201
0.00720309
0.00721282
0.007222
0.0072315
0.00724217
0.00725471
0.00726965
0.00728721
0.00730732
0.00732956
0.00735326
0.00737747
0.00740109
0.00742293
0.00744188
0.00745701
0.00746766
0.00747357
0.00747484
0.00747192
0.0074655
0.00745644
0.00744561
0.00743384
0.00742184
0.00741022
0.0073995
0.00739011
0.00738246
0.00737689
0.00737372
0.00737316
0.00737533
0.00738016
0.00738746
0.00739688
0.00740795
0.00742017
0.00743307
0.00744626
0.00745948
0.0074726
0.00748556
0.00749831
0.00751078
0.00752287
0.00753441
0.00754524
0.00755524
0.00756438
0.00757275
0.00758055
0.00758804
0.00759553
0.00760327
0.00761145
0.00762009
0.00762912
0.00763834
0.00764745
0.00765607
0.00766379
0.00767014
0.00767464
0.00767682
0.00767626
0.00767263
0.00766573
0.00765553
0.0076422
0.00762612
0.00760788
0.00758823
0.00756807
0.00754836
0.00753
0.00751384
0.00750051
0.00749039
0.00748361
0.00748
0.00747917
0.00748052
0.00748337
0.00748703
0.00749089
0.0074945
0.00749761
0.00750019
0.00750244
0.00750472
0.00750751
0.00751137
0.00751683
0.00752437
0.00753428
0.00754669
0.00756149
0.00757833
0.00759666
0.00761569
0.00763467
0.0076526
0.00766859
0.00768202
0.00769294
0.00769983
0.00770205
0.00770205
0.04
0.0230878
0.0248155
0.0222309
0.0150879
0.0142022
0.0171848
0.0178076
0.0161414
0.0154705
0.015546
0.0153598
0.015001
0.0149382
0.0147753
0.0145071
0.014331
0.0142763
0.0141151
0.0139396
0.0138249
0.0137303
0.0135838
0.0134637
0.0133719
0.0132737
0.0131633
0.0130843
0.0130174
0.0129481
0.0128874
0.012851
0.0128204
0.0127956
0.0127881
0.0128009
0.012826
0.0128731
0.0129512
0.0130613
0.0132046
0.0133902
0.0136196
0.01389
0.0141994
0.0145452
0.014918
0.0153065
0.0156998
0.0160838
0.016444
0.0167643
0.0170346
0.0172432
0.0173875
0.0174662
0.0174928
0.0174761
0.0174415
0.0173996
0.0173749
0.0173647
0.0173839
0.0174138
0.0174662
0.0175167
0.0175853
0.0176466
0.0177284
0.0177984
0.0178869
0.017951
0.0180257
0.0180661
0.01812
0.0181409
0.0181877
0.0182095
0.0182667
0.0182954
0.0183588
0.018387
0.0184458
0.0184608
0.0185071
0.0185113
0.0185505
0.0185506
0.0185924
0.0185984
0.0186457
0.0186565
0.0187058
0.0187197
0.0187704
0.0187857
0.0188331
0.0188469
0.0188837
0.0188812
0.0188927
0.0188645
0.018843
0.0187848
0.0187314
0.018648
0.0185701
0.0184693
0.0183747
0.0182649
0.0181615
0.0180471
0.0179368
0.0178167
0.0176974
0.0175691
0.0174391
0.0173021
0.0171645
0.0170218
0.0168785
0.0167339
0.0165901
0.0164452
0.0163025
0.0161616
0.016023
0.0158866
0.0157541
0.0156249
0.0154985
0.0153752
0.0152555
0.0151383
0.0150241
0.014914
0.0148083
0.0147073
0.0146118
0.0145225
0.0144393
0.0143619
0.0142907
0.0142255
0.0141658
0.0141112
0.014062
0.0140178
0.0139783
0.013944
0.0139153
0.0138926
0.0138767
0.0138687
0.0138696
0.0138803
0.0139016
0.0139341
0.0139774
0.0140308
0.0140931
0.014162
0.014235
0.0143093
0.0143818
0.0144498
0.0145112
0.0145645
0.0146088
0.014644
0.0146708
0.0146901
0.0147031
0.014711
0.0147151
0.0147164
0.0147156
0.0147136
0.0147108
0.0147075
0.014704
0.0147004
0.0146969
0.0146935
0.01469
0.0146864
0.0146827
0.0146788
0.0146746
0.0146704
0.0146661
0.0146618
0.0146576
0.0146534
0.0146491
0.0146443
0.0146389
0.0146327
0.0146255
0.0146172
0.0146081
0.0145985
0.0145884
0.0145782
0.0145682
0.0145586
0.0145496
0.0145414
0.0145342
0.0145282
0.0145236
0.0145204
0.0145189
0.0145189
0.0145204
0.0145231
0.0145269
0.0145315
0.0145367
0.0145423
0.0145484
0.0145551
0.0145623
0.0145701
0.0145786
0.0145874
0.0145961
0.0146041
0.014611
0.014616
0.014619
0.01462
0.0146194
0.0146182
0.0146175
0.0146184
0.0146219
0.0146283
0.0146376
0.0146489
0.014661
0.0146721
0.0146808
0.0146858
0.0146865
0.0146828
0.0146753
0.014665
0.0146529
0.01464
0.014627
0.014614
0.0146013
0.0145888
0.0145763
0.0145638
0.0145514
0.014539
0.0145265
0.0145138
0.0145005
0.0144864
0.0144716
0.0144559
0.0144397
0.014423
0.0144062
0.0143892
0.0143722
0.0143553
0.0143385
0.014322
0.0143063
0.0142917
0.014279
0.0142688
0.0142619
0.0142593
0.0142614
0.0142687
0.014281
0.0142978
0.0143182
0.0143411
0.0143653
0.0143897
0.0144132
0.0144349
0.0144544
0.0144712
0.0144856
0.0144978
0.0145087
0.0145191
0.01453
0.0145423
0.0145569
0.0145743
0.0145947
0.0146181
0.014644
0.0146717
0.0147001
0.014728
0.0147541
0.0147772
0.0147962
0.0148103
0.0148193
0.0148231
0.0148222
0.0148173
0.0148093
0.0147993
0.0147881
0.0147767
0.0147657
0.0147558
0.0147476
0.0147416
0.014738
0.0147373
0.0147396
0.014745
0.0147533
0.0147643
0.0147777
0.0147928
0.0148092
0.0148263
0.0148437
0.0148613
0.0148788
0.0148961
0.0149133
0.0149303
0.0149469
0.014963
0.0149785
0.0149931
0.0150068
0.0150197
0.0150318
0.0150435
0.0150548
0.015066
0.0150772
0.0150884
0.0150995
0.0151103
0.0151205
0.0151297
0.0151375
0.0151436
0.0151474
0.0151487
0.015147
0.0151422
0.0151342
0.0151229
0.0151087
0.0150921
0.0150736
0.0150542
0.0150348
0.0150163
0.0149997
0.0149858
0.0149752
0.0149682
0.014965
0.0149653
0.0149686
0.0149743
0.0149818
0.0149903
0.0149991
0.0150079
0.0150165
0.0150247
0.0150328
0.0150411
0.0150501
0.0150602
0.015072
0.0150857
0.0151016
0.0151197
0.0151397
0.0151611
0.0151835
0.0152058
0.0152273
0.015247
0.0152643
0.015278
0.0152877
0.0152931
0.015295
0.015295
0.04
0.0239025
0.0220743
0.0191187
0.0202448
0.0223263
0.0213606
0.019669
0.019803
0.0202822
0.0197166
0.0190905
0.0189442
0.0188278
0.0184785
0.0182568
0.0181171
0.0179137
0.0176786
0.0175464
0.0174056
0.0172287
0.0170691
0.0169591
0.0168292
0.0166985
0.0165948
0.0165132
0.0164241
0.0163533
0.0163065
0.0162717
0.0162417
0.016234
0.0162443
0.0162665
0.0163056
0.016373
0.0164654
0.0165861
0.0167436
0.0169429
0.017181
0.0174603
0.0177802
0.0181346
0.0185141
0.0189106
0.0193123
0.019704
0.0200719
0.020402
0.0206828
0.020903
0.0210614
0.0211577
0.0212045
0.0212129
0.0212078
0.0212009
0.0212154
0.0212493
0.0213145
0.0213932
0.0214947
0.0215952
0.0217132
0.0218254
0.0219585
0.0220808
0.0222223
0.0223395
0.0224682
0.0225617
0.0226702
0.0227447
0.0228496
0.0229276
0.0230456
0.0231318
0.0232601
0.0233458
0.0234686
0.0235396
0.0236514
0.0237077
0.0238095
0.0238586
0.0239626
0.0240125
0.0241181
0.0241693
0.0242762
0.0243248
0.0244291
0.0244765
0.0245746
0.024614
0.0246968
0.0247154
0.0247672
0.0247549
0.024768
0.0247205
0.0246957
0.0246194
0.0245636
0.0244641
0.0243852
0.0242739
0.0241789
0.0240571
0.0239503
0.0238208
0.0236979
0.0235567
0.0234214
0.0232701
0.0231214
0.0229643
0.0228102
0.0226486
0.022491
0.0223314
0.022174
0.0220159
0.0218624
0.0217098
0.0215601
0.0214132
0.0212704
0.0211294
0.020992
0.0208586
0.0207294
0.0206047
0.0204862
0.0203748
0.0202708
0.0201745
0.0200867
0.020007
0.0199347
0.0198692
0.0198104
0.019757
0.0197084
0.0196642
0.0196241
0.0195879
0.0195564
0.0195301
0.0195098
0.0194969
0.0194928
0.0194985
0.0195148
0.0195424
0.0195811
0.0196301
0.0196881
0.0197533
0.0198229
0.0198944
0.0199651
0.0200324
0.0200942
0.0201489
0.0201959
0.0202347
0.0202658
0.0202899
0.0203081
0.0203213
0.0203307
0.0203373
0.0203417
0.0203447
0.0203467
0.0203483
0.0203495
0.0203505
0.0203513
0.020352
0.0203525
0.0203528
0.0203528
0.0203526
0.0203522
0.0203516
0.0203509
0.0203501
0.0203493
0.0203485
0.0203475
0.0203461
0.0203443
0.0203417
0.0203384
0.0203343
0.0203295
0.0203243
0.0203187
0.0203131
0.0203075
0.0203023
0.0202977
0.0202937
0.0202907
0.0202886
0.0202878
0.0202882
0.02029
0.0202931
0.0202974
0.0203028
0.020309
0.0203159
0.0203233
0.0203312
0.0203396
0.0203486
0.0203583
0.0203687
0.0203797
0.0203911
0.0204025
0.0204132
0.0204226
0.0204302
0.0204358
0.0204394
0.0204416
0.0204432
0.0204453
0.0204491
0.0204553
0.0204645
0.0204764
0.0204903
0.0205048
0.0205184
0.0205296
0.0205372
0.0205406
0.0205398
0.0205354
0.0205283
0.0205195
0.0205098
0.0204998
0.0204898
0.0204798
0.0204697
0.0204595
0.0204493
0.0204392
0.0204291
0.020419
0.0204087
0.0203979
0.0203865
0.0203743
0.0203614
0.020348
0.0203343
0.0203206
0.0203069
0.0202934
0.0202801
0.0202671
0.0202546
0.0202429
0.0202324
0.0202238
0.0202175
0.0202144
0.0202151
0.0202202
0.02023
0.0202444
0.0202628
0.0202845
0.0203086
0.0203338
0.0203591
0.0203836
0.0204064
0.020427
0.020445
0.0204606
0.020474
0.020486
0.0204975
0.0205093
0.0205224
0.0205375
0.0205553
0.020576
0.0205996
0.0206256
0.0206534
0.0206818
0.0207098
0.0207362
0.0207596
0.0207792
0.0207942
0.0208043
0.0208094
0.0208099
0.0208066
0.0208003
0.0207919
0.0207822
0.0207721
0.0207623
0.0207535
0.0207462
0.0207409
0.0207379
0.0207376
0.0207403
0.020746
0.0207548
0.0207665
0.0207808
0.0207971
0.020815
0.0208339
0.0208535
0.0208734
0.0208934
0.0209132
0.0209329
0.0209522
0.020971
0.0209893
0.0210067
0.0210234
0.0210391
0.0210541
0.0210684
0.0210822
0.0210958
0.0211094
0.0211231
0.0211368
0.0211504
0.0211637
0.0211762
0.0211876
0.0211975
0.0212055
0.0212111
0.021214
0.0212139
0.0212107
0.0212041
0.0211945
0.021182
0.0211672
0.0211506
0.0211332
0.0211158
0.0210994
0.0210849
0.021073
0.0210644
0.0210594
0.021058
0.0210601
0.0210651
0.0210725
0.0210816
0.0210917
0.0211021
0.0211125
0.0211226
0.0211323
0.0211418
0.0211515
0.0211617
0.0211729
0.0211856
0.0212
0.0212165
0.0212348
0.0212549
0.0212763
0.0212984
0.0213205
0.0213417
0.021361
0.0213778
0.0213914
0.0214011
0.0214067
0.0214085
0.0214085
0.04
0.0256925
0.0269279
0.0269434
0.0266895
0.0240971
0.0225179
0.0234899
0.0241948
0.0230522
0.0221397
0.0223117
0.0223186
0.0217938
0.0214343
0.0213762
0.0211571
0.0208569
0.0206845
0.0205616
0.0203386
0.0201482
0.0200233
0.0198874
0.0197159
0.0195932
0.0194951
0.0193871
0.019284
0.0192224
0.0191708
0.0191241
0.0190993
0.0191044
0.0191179
0.0191484
0.0192064
0.019291
0.0193957
0.0195345
0.019712
0.0199269
0.0201797
0.0204768
0.0208128
0.0211812
0.0215755
0.0219877
0.0224032
0.0228083
0.0231895
0.0235328
0.0238249
0.0240563
0.024225
0.0243315
0.0243875
0.0244067
0.0244123
0.0244192
0.024448
0.0244992
0.0245809
0.0246788
0.0247967
0.0249155
0.0250493
0.0251812
0.0253313
0.0254751
0.0256353
0.0257756
0.0259235
0.0260394
0.0261669
0.0262665
0.0263937
0.026498
0.0266418
0.0267596
0.026916
0.0270314
0.0271849
0.0272881
0.0274299
0.0275141
0.0276487
0.0277258
0.0278603
0.0279349
0.0280747
0.0281482
0.0282893
0.0283599
0.0284997
0.0285669
0.0287036
0.0287599
0.0288793
0.0289138
0.0290026
0.0290024
0.0290506
0.0290142
0.0290233
0.0289542
0.0289277
0.0288347
0.0287813
0.0286707
0.0285965
0.0284751
0.0283823
0.0282488
0.0281375
0.0279913
0.027861
0.0277041
0.0275587
0.0273932
0.0272381
0.0270688
0.0269069
0.0267371
0.0265741
0.0264051
0.0262417
0.0260768
0.0259157
0.0257536
0.025596
0.0254391
0.0252856
0.0251348
0.0249894
0.0248489
0.0247155
0.0245902
0.0244743
0.0243682
0.0242721
0.0241859
0.0241095
0.0240413
0.0239803
0.0239255
0.0238757
0.0238296
0.0237869
0.0237474
0.0237113
0.0236795
0.0236531
0.0236336
0.0236225
0.0236212
0.0236306
0.0236515
0.0236837
0.0237266
0.0237787
0.0238385
0.0239035
0.0239711
0.024039
0.0241049
0.0241665
0.0242225
0.0242718
0.024314
0.0243493
0.024378
0.024401
0.0244191
0.0244331
0.024444
0.0244529
0.0244601
0.0244662
0.0244716
0.0244767
0.0244814
0.0244858
0.0244899
0.0244938
0.0244974
0.0245006
0.0245037
0.0245066
0.0245094
0.024512
0.0245145
0.024517
0.0245193
0.0245214
0.0245233
0.0245247
0.0245257
0.0245261
0.0245259
0.0245253
0.0245242
0.0245229
0.0245215
0.0245202
0.0245191
0.0245185
0.0245186
0.0245194
0.0245212
0.024524
0.0245279
0.024533
0.0245393
0.0245465
0.0245545
0.0245632
0.0245724
0.0245822
0.0245924
0.0246033
0.0246149
0.0246274
0.0246407
0.0246549
0.0246695
0.0246841
0.0246981
0.0247108
0.0247218
0.0247307
0.0247377
0.0247432
0.0247481
0.0247535
0.0247605
0.0247698
0.024782
0.0247967
0.0248132
0.0248302
0.0248463
0.02486
0.0248701
0.0248761
0.0248781
0.0248765
0.0248722
0.0248661
0.0248589
0.0248512
0.0248431
0.0248348
0.0248261
0.0248171
0.024808
0.0247989
0.0247899
0.024781
0.0247719
0.0247624
0.0247524
0.0247416
0.0247302
0.0247183
0.0247063
0.0246944
0.0246827
0.0246713
0.0246603
0.0246499
0.0246403
0.0246318
0.0246247
0.0246195
0.0246167
0.024617
0.0246209
0.0246289
0.0246412
0.0246577
0.0246779
0.0247011
0.0247264
0.0247527
0.0247791
0.0248045
0.0248283
0.0248499
0.0248689
0.0248854
0.0248998
0.0249126
0.0249248
0.0249372
0.0249509
0.0249665
0.0249846
0.0250057
0.0250295
0.0250557
0.0250837
0.0251124
0.0251406
0.0251672
0.025191
0.025211
0.0252264
0.0252368
0.0252423
0.0252431
0.02524
0.0252336
0.0252248
0.0252147
0.0252039
0.0251933
0.0251835
0.025175
0.0251685
0.0251642
0.0251628
0.0251643
0.0251692
0.0251773
0.0251886
0.0252028
0.0252195
0.0252382
0.0252584
0.0252796
0.0253014
0.0253234
0.0253455
0.0253673
0.0253888
0.0254098
0.0254301
0.0254496
0.0254682
0.0254859
0.0255028
0.0255191
0.0255349
0.0255506
0.0255661
0.0255817
0.0255972
0.0256124
0.0256271
0.0256408
0.0256531
0.0256635
0.0256715
0.0256769
0.0256793
0.0256784
0.0256742
0.0256665
0.0256557
0.025642
0.025626
0.0256084
0.02559
0.0255717
0.0255545
0.0255393
0.0255268
0.0255175
0.0255119
0.0255098
0.0255113
0.0255157
0.0255225
0.0255311
0.0255408
0.0255509
0.0255611
0.025571
0.0255807
0.0255903
0.0256001
0.0256104
0.0256218
0.0256346
0.0256491
0.0256654
0.0256836
0.0257032
0.0257241
0.0257455
0.0257666
0.0257868
0.0258051
0.0258209
0.0258333
0.0258422
0.0258477
0.0258493
0.0258493
0.04
0.0266011
0.0276903
0.0263308
0.0255592
0.0256767
0.0267153
0.026083
0.0246525
0.0245041
0.0251645
0.024861
0.0240803
0.0238948
0.0239731
0.0236979
0.0233359
0.02321
0.0230824
0.0228396
0.0226409
0.022529
0.0223649
0.0221813
0.0220499
0.0219431
0.0218037
0.0216841
0.0216005
0.0215247
0.0214458
0.0214009
0.0213816
0.0213734
0.0213828
0.0214276
0.0214945
0.0215826
0.0217027
0.0218615
0.0220514
0.0222795
0.0225514
0.0228648
0.0232131
0.0235961
0.0240061
0.024431
0.0248578
0.0252754
0.0256681
0.0260204
0.0263204
0.0265599
0.0267341
0.0268452
0.0269053
0.0269297
0.0269402
0.0269555
0.0269932
0.0270571
0.0271516
0.0272645
0.027394
0.0275274
0.0276722
0.0278171
0.0279767
0.0281357
0.0283059
0.0284605
0.0286171
0.0287474
0.0288825
0.0289965
0.0291323
0.0292545
0.0294107
0.0295483
0.0297176
0.0298551
0.0300237
0.0301465
0.0303023
0.0304074
0.0305572
0.0306518
0.0308017
0.0308943
0.0310525
0.031141
0.0313009
0.0313872
0.0315502
0.0316295
0.0317903
0.0318583
0.0320041
0.0320477
0.0321638
0.0321713
0.0322491
0.0322192
0.0322575
0.0321934
0.0321954
0.0321058
0.0320786
0.0319682
0.0319167
0.0317945
0.03172
0.0315821
0.0314861
0.0313361
0.0312156
0.0310525
0.0309157
0.0307431
0.0305896
0.0304132
0.030252
0.0300717
0.0299043
0.0297262
0.0295559
0.0293774
0.0292064
0.0290305
0.0288584
0.0286844
0.0285154
0.0283465
0.0281831
0.0280247
0.0278748
0.0277327
0.0276015
0.0274817
0.0273741
0.0272775
0.0271925
0.0271177
0.0270512
0.0269912
0.0269367
0.0268858
0.0268374
0.0267912
0.0267475
0.0267068
0.0266708
0.0266407
0.0266183
0.0266055
0.0266032
0.0266122
0.0266327
0.0266641
0.0267051
0.026754
0.0268092
0.0268681
0.0269284
0.0269881
0.0270454
0.0270985
0.0271465
0.0271887
0.0272248
0.0272551
0.0272798
0.0272998
0.0273159
0.0273286
0.0273389
0.0273477
0.0273553
0.027362
0.0273682
0.0273739
0.0273792
0.0273841
0.0273885
0.0273927
0.0273965
0.0274002
0.0274036
0.027407
0.0274102
0.0274133
0.0274163
0.0274192
0.0274219
0.0274244
0.0274267
0.0274288
0.0274306
0.0274321
0.0274334
0.0274345
0.0274355
0.0274365
0.0274376
0.027439
0.0274407
0.0274431
0.0274462
0.0274502
0.0274551
0.027461
0.0274678
0.0274756
0.027484
0.0274931
0.0275027
0.0275126
0.027523
0.0275339
0.0275455
0.027558
0.0275716
0.0275863
0.027602
0.0276183
0.0276346
0.0276504
0.027665
0.0276778
0.0276885
0.0276973
0.0277045
0.0277111
0.027718
0.0277264
0.027737
0.0277502
0.0277659
0.0277832
0.027801
0.0278178
0.0278322
0.0278431
0.0278501
0.027853
0.0278524
0.0278491
0.0278439
0.0278376
0.0278304
0.0278227
0.0278143
0.0278055
0.0277962
0.0277866
0.0277771
0.0277678
0.0277587
0.0277496
0.0277402
0.0277304
0.02772
0.0277091
0.0276978
0.0276865
0.0276754
0.0276646
0.0276545
0.0276449
0.0276363
0.0276286
0.0276224
0.0276178
0.0276152
0.0276151
0.027618
0.0276242
0.0276341
0.0276478
0.0276652
0.0276859
0.0277092
0.0277342
0.02776
0.0277857
0.0278105
0.0278335
0.0278543
0.0278725
0.0278883
0.0279018
0.0279138
0.027925
0.0279365
0.027949
0.0279634
0.0279803
0.0279999
0.0280224
0.0280472
0.0280737
0.0281009
0.0281278
0.0281531
0.0281757
0.0281946
0.0282089
0.0282184
0.0282229
0.0282228
0.0282186
0.028211
0.0282009
0.0281892
0.0281767
0.0281642
0.0281524
0.0281419
0.0281332
0.0281268
0.0281231
0.0281226
0.0281254
0.0281317
0.0281415
0.0281545
0.0281703
0.0281885
0.0282086
0.0282301
0.0282524
0.0282752
0.0282982
0.028321
0.0283434
0.0283653
0.0283864
0.0284067
0.0284261
0.0284446
0.0284622
0.0284791
0.0284956
0.0285118
0.0285279
0.0285439
0.0285596
0.028575
0.0285896
0.028603
0.0286147
0.0286242
0.0286311
0.0286349
0.0286354
0.0286324
0.0286258
0.0286158
0.0286025
0.0285864
0.0285681
0.0285482
0.0285276
0.0285073
0.0284882
0.0284711
0.0284568
0.0284457
0.0284383
0.0284345
0.0284341
0.0284368
0.028442
0.0284491
0.0284573
0.0284661
0.0284752
0.0284841
0.0284929
0.0285018
0.0285109
0.0285206
0.0285314
0.0285435
0.0285572
0.0285726
0.0285897
0.0286082
0.0286276
0.0286475
0.0286669
0.0286853
0.0287018
0.0287158
0.0287267
0.0287342
0.0287383
0.0287389
0.0287389
0.04
0.0245943
0.0251338
0.0263217
0.0270536
0.0269151
0.026572
0.0259321
0.0262534
0.0266433
0.0261478
0.0254773
0.0255997
0.0257763
0.0254171
0.0250298
0.0250043
0.0249557
0.0246941
0.0244896
0.0244079
0.0242715
0.0240765
0.023949
0.0238475
0.0237066
0.0235679
0.0234761
0.0233828
0.0232802
0.023203
0.0231589
0.0231188
0.0230968
0.0231102
0.0231526
0.0232129
0.0233074
0.0234404
0.023606
0.0238051
0.0240493
0.0243351
0.0246585
0.0250194
0.0254158
0.0258354
0.0262685
0.0267046
0.0271299
0.0275275
0.0278843
0.0281882
0.0284294
0.0286038
0.0287153
0.0287748
0.0287992
0.0288112
0.0288302
0.0288729
0.0289454
0.0290481
0.0291698
0.0293062
0.0294477
0.0295963
0.0297474
0.0299113
0.0300782
0.0302521
0.0304147
0.0305741
0.0307121
0.0308491
0.0309712
0.0311105
0.0312461
0.031408
0.0315588
0.0317353
0.0318894
0.032063
0.0321994
0.0323633
0.0324852
0.03264
0.0327495
0.0329107
0.0330184
0.0331844
0.0332889
0.0334618
0.0335605
0.0337377
0.0338298
0.0340063
0.0340847
0.0342492
0.0343004
0.0344372
0.0344526
0.0345549
0.0345311
0.0345949
0.0345378
0.0345679
0.0344808
0.0344794
0.0343732
0.0343456
0.0342209
0.0341684
0.0340301
0.03395
0.0337959
0.0336921
0.0335244
0.0333968
0.03322
0.0330747
0.0328903
0.0327323
0.0325458
0.0323782
0.0321909
0.0320181
0.0318301
0.0316518
0.031464
0.0312825
0.0310943
0.0309119
0.0307277
0.03055
0.0303751
0.0302096
0.0300521
0.0299067
0.0297723
0.0296519
0.0295445
0.0294496
0.0293656
0.0292918
0.0292254
0.0291641
0.0291064
0.0290509
0.0289966
0.0289436
0.0288923
0.0288444
0.0288015
0.0287654
0.0287379
0.0287208
0.0287146
0.0287195
0.0287354
0.0287614
0.0287957
0.0288367
0.0288827
0.0289318
0.0289817
0.029031
0.0290782
0.0291218
0.0291611
0.0291956
0.0292249
0.0292492
0.0292689
0.0292847
0.0292972
0.0293071
0.029315
0.0293218
0.0293276
0.0293326
0.029337
0.0293408
0.029344
0.0293468
0.029349
0.0293509
0.0293527
0.0293542
0.0293556
0.0293569
0.0293581
0.0293591
0.0293599
0.0293607
0.0293615
0.0293622
0.0293629
0.0293638
0.0293649
0.0293659
0.0293671
0.0293684
0.0293697
0.0293711
0.0293729
0.0293751
0.0293778
0.0293812
0.0293853
0.0293902
0.029396
0.0294024
0.0294095
0.029417
0.0294248
0.0294329
0.0294413
0.02945
0.0294592
0.0294694
0.0294806
0.0294932
0.0295072
0.0295224
0.0295383
0.0295544
0.02957
0.0295844
0.029597
0.0296076
0.0296161
0.0296232
0.0296295
0.0296362
0.0296443
0.0296545
0.0296672
0.0296822
0.0296988
0.0297157
0.0297317
0.0297452
0.0297554
0.0297617
0.0297642
0.0297632
0.0297595
0.0297538
0.0297468
0.0297387
0.0297298
0.0297199
0.0297093
0.0296981
0.0296867
0.0296752
0.0296641
0.0296534
0.0296428
0.0296321
0.0296211
0.0296097
0.0295978
0.0295858
0.0295738
0.0295622
0.029551
0.0295406
0.0295311
0.0295226
0.0295156
0.0295102
0.0295067
0.0295053
0.0295065
0.0295105
0.0295175
0.0295278
0.0295415
0.0295583
0.0295778
0.0295995
0.0296227
0.0296464
0.02967
0.0296925
0.0297133
0.0297319
0.0297479
0.0297615
0.0297728
0.0297826
0.0297916
0.0298006
0.0298106
0.0298224
0.0298365
0.0298533
0.0298728
0.0298946
0.0299181
0.0299425
0.0299665
0.0299891
0.0300092
0.0300256
0.0300378
0.0300453
0.030048
0.030046
0.03004
0.0300304
0.0300183
0.0300043
0.0299894
0.0299743
0.0299597
0.0299463
0.0299345
0.029925
0.0299182
0.0299146
0.0299143
0.0299177
0.0299248
0.0299353
0.0299491
0.0299656
0.0299844
0.0300049
0.0300266
0.0300491
0.0300718
0.0300944
0.0301167
0.0301384
0.0301594
0.0301794
0.0301985
0.0302167
0.030234
0.0302507
0.0302668
0.0302826
0.0302982
0.0303136
0.0303288
0.0303436
0.0303574
0.03037
0.0303806
0.0303888
0.0303941
0.0303961
0.0303945
0.0303892
0.0303802
0.0303675
0.0303515
0.0303327
0.0303117
0.0302892
0.030266
0.0302432
0.0302215
0.0302019
0.0301849
0.0301713
0.0301611
0.0301546
0.0301515
0.0301516
0.0301542
0.0301589
0.0301649
0.0301718
0.0301791
0.0301865
0.0301939
0.0302015
0.0302094
0.0302179
0.0302275
0.0302383
0.0302507
0.0302647
0.0302802
0.0302969
0.0303145
0.0303323
0.0303498
0.0303661
0.0303805
0.0303924
0.0304015
0.0304073
0.0304098
0.0304094
0.0304094
0.04
0.0245998
0.0253201
0.025815
0.0260224
0.0260721
0.0262436
0.0266817
0.0269997
0.0264035
0.0261302
0.0265799
0.0267328
0.0262134
0.025991
0.0261917
0.0261558
0.0258298
0.0257
0.0257194
0.0255881
0.0253885
0.0253027
0.0252352
0.0250883
0.024957
0.0248799
0.0247841
0.0246614
0.0245745
0.0245121
0.024441
0.0243822
0.0243656
0.0243707
0.0243916
0.0244489
0.0245498
0.0246788
0.0248428
0.0250536
0.0253079
0.0255982
0.0259313
0.0263055
0.0267101
0.0271362
0.0275785
0.0280224
0.0284516
0.0288524
0.0292123
0.0295165
0.0297552
0.0299263
0.0300333
0.0300865
0.0301052
0.0301123
0.0301286
0.0301712
0.0302464
0.0303516
0.0304784
0.030619
0.0307634
0.0309123
0.0310671
0.0312322
0.0314011
0.0315758
0.0317436
0.0319026
0.0320428
0.032179
0.0323067
0.0324466
0.0325888
0.0327524
0.0329141
0.0330933
0.0332548
0.0334294
0.0335786
0.033744
0.0338751
0.0340337
0.0341581
0.0343234
0.0344438
0.0346156
0.0347349
0.0349153
0.0350255
0.0352109
0.0353152
0.0355016
0.0355887
0.0357642
0.0358231
0.0359753
0.0359977
0.0361171
0.036101
0.0361869
0.0361356
0.0361884
0.0361071
0.0361293
0.0360258
0.0360204
0.0358965
0.0358637
0.0357248
0.0356625
0.0355055
0.0354174
0.0352475
0.0351312
0.0349498
0.0348145
0.0346247
0.0344708
0.0342793
0.0341154
0.0339205
0.0337475
0.033554
0.0333734
0.0331766
0.0329904
0.0327935
0.0326031
0.0324078
0.0322208
0.0320341
0.031857
0.0316868
0.0315296
0.0313831
0.031251
0.0311325
0.0310282
0.0309354
0.0308535
0.0307801
0.0307128
0.0306488
0.030587
0.0305259
0.0304653
0.0304053
0.0303471
0.0302927
0.0302441
0.0302028
0.0301708
0.0301493
0.0301386
0.0301382
0.0301479
0.0301668
0.0301929
0.0302248
0.0302614
0.0303007
0.030341
0.0303811
0.0304196
0.0304551
0.0304869
0.0305146
0.0305379
0.0305567
0.0305716
0.0305832
0.0305922
0.030599
0.0306043
0.0306084
0.0306116
0.030614
0.0306155
0.0306163
0.0306164
0.0306159
0.030615
0.0306137
0.0306123
0.0306106
0.0306088
0.0306067
0.0306046
0.0306022
0.0305998
0.0305975
0.0305955
0.0305939
0.0305926
0.0305919
0.0305917
0.0305917
0.030592
0.0305926
0.0305935
0.0305945
0.030596
0.030598
0.0306006
0.0306039
0.0306078
0.0306123
0.0306172
0.0306225
0.0306279
0.0306334
0.0306388
0.0306443
0.0306502
0.0306566
0.030664
0.0306728
0.0306832
0.0306953
0.0307088
0.0307233
0.0307381
0.0307525
0.0307657
0.0307771
0.0307865
0.0307938
0.0307996
0.0308046
0.03081
0.0308167
0.0308255
0.0308367
0.0308502
0.0308651
0.0308804
0.0308946
0.0309066
0.0309152
0.0309201
0.0309211
0.0309187
0.0309136
0.0309063
0.0308975
0.0308874
0.0308762
0.0308639
0.0308506
0.0308367
0.0308224
0.0308083
0.0307945
0.0307813
0.0307684
0.0307556
0.0307426
0.0307294
0.030716
0.0307024
0.030689
0.0306759
0.0306635
0.030652
0.0306415
0.0306324
0.0306249
0.0306194
0.030616
0.030615
0.0306165
0.0306207
0.0306277
0.0306376
0.0306504
0.0306658
0.0306835
0.0307029
0.0307235
0.0307444
0.0307649
0.0307843
0.0308019
0.0308173
0.0308302
0.0308406
0.0308488
0.0308554
0.0308612
0.030867
0.0308736
0.0308819
0.0308924
0.0309055
0.0309213
0.0309394
0.0309592
0.03098
0.0310005
0.0310199
0.0310368
0.0310504
0.03106
0.0310651
0.0310655
0.0310614
0.0310531
0.0310414
0.0310269
0.0310105
0.030993
0.0309752
0.0309577
0.0309414
0.0309266
0.030914
0.030904
0.0308972
0.0308938
0.0308941
0.0308981
0.0309059
0.0309171
0.0309313
0.0309481
0.030967
0.0309873
0.0310086
0.0310303
0.0310521
0.0310737
0.0310947
0.031115
0.0311344
0.0311529
0.0311704
0.031187
0.0312028
0.0312181
0.031233
0.0312476
0.0312621
0.0312762
0.0312899
0.0313028
0.0313142
0.0313238
0.0313308
0.0313348
0.0313353
0.031332
0.0313248
0.0313137
0.0312989
0.0312807
0.0312596
0.0312362
0.0312113
0.0311858
0.0311605
0.0311364
0.0311142
0.0310946
0.0310781
0.0310651
0.0310557
0.0310497
0.0310469
0.0310469
0.031049
0.0310527
0.0310576
0.0310631
0.031069
0.0310751
0.0310815
0.0310884
0.031096
0.0311046
0.0311145
0.0311258
0.0311386
0.0311528
0.0311682
0.0311843
0.0312005
0.0312163
0.0312309
0.0312436
0.0312538
0.0312611
0.0312653
0.0312664
0.031265
0.031265
0.04
0.0252639
0.0258065
0.0254861
0.0258459
0.0262328
0.0263954
0.0264101
0.0263515
0.0264466
0.0268555
0.0267855
0.0264354
0.0264764
0.0267712
0.026657
0.0263778
0.0263793
0.0264782
0.0263459
0.0261746
0.0261505
0.0261252
0.0259952
0.025886
0.0258378
0.025757
0.0256416
0.0255585
0.0254952
0.0254094
0.0253306
0.0252868
0.0252595
0.0252401
0.0252567
0.0253144
0.0254005
0.0255201
0.0256891
0.0259017
0.0261524
0.0264479
0.02679
0.0271673
0.0275747
0.0280079
0.028455
0.0288995
0.0293299
0.0297324
0.0300905
0.0303904
0.0306254
0.0307911
0.0308905
0.0309364
0.0309489
0.0309502
0.0309637
0.0310062
0.031083
0.0311915
0.0313229
0.0314653
0.0316107
0.0317604
0.0319152
0.032078
0.0322478
0.0324228
0.0325908
0.0327482
0.0328901
0.0330249
0.0331549
0.0332951
0.0334422
0.0336075
0.0337758
0.0339541
0.0341204
0.0342956
0.034452
0.0346152
0.0347551
0.0349189
0.0350544
0.03522
0.0353544
0.0355334
0.0356626
0.0358454
0.0359687
0.036159
0.0362715
0.0364622
0.0365564
0.0367373
0.0368022
0.0369625
0.0369901
0.0371209