# vtk DataFile Version 3.0
LBM output step 1630
ASCII
DATASET STRUCTURED_POINTS
DIMENSIONS 400 100 1
ORIGIN 0 0 0
SPACING 1 1 1
POINT_DATA 40000
SCALARS velocity_magnitude double 1
LOOKUP_TABLE default
0
0
0
0
0
0
0
0
0
0
0
0
0
0
0
0
0
0
0
0
0
0
0
0
0
0
0
0
0
0
0
0
0
0
0
0
0
0
0
0
0
0
0
0
0
0
0
0
0
0
0
0
0
0
0
0
0
0
0
0
0
0
0
0
0
0
0
0
0
0
0
0
0
0
0
0
0
0
0
0
0
0
0
0
0
0
0
0
0
0
0
0
0
0
0
0
0
0
0
0
0
0
0
0
0
0
0
0
0
0
0
0
0
0
0
0
0
0
0
0
0
0
0
0
0
0
0
0
0
0
0
0
0
0
0
0
0
0
0
0
0
0
0
0
0
0
0
0
0
0
0
0
0
0
0
0
0
0
0
0
0
0
0
0
0
0
0
0
0
0
0
0
0
0
0
0
0
0
0
0
0
0
0
0
0
0
0
0
0
0
0
0
0
0
0
0
0
0
0
0
0
0
0
0
0
0
0
0
0
0
0
0
0
0
0
0
0
0
0
0
0
0
0
0
0
0
0
0
0
0
0
0
0
0
0
0
0
0
0
0
0
0
0
0
0
0
0
0
0
0
0
0
0
0
0
0
0
0
0
0
0
0
0
0
0
0
0
0
0
0
0
0
0
0
0
0
0
0
0
0
0
0
0
0
0
0
0
0
0
0
0
0
0
0
0
0
0
0
0
0
0
0
0
0
0
0
0
0
0
0
0
0
0
0
0
0
0
0
0
0
0
0
0
0
0
0
0
0
0
0
0
0
0
0
0
0
0
0
0
0
0
0
0
0
0
0
0
0
0
0
0
0
0
0
0
0
0
0
0
0
0
0
0
0
0
0
0
0
0
0
0
0
0
0
0
0
0
0
0
0
0
0
0
0
0
0
0
0
0
0
0
0
0
0
0
0
0
0
0
0
0.04
0.0176395
0.0115642
0.0143878
0.0175628
0.0175543
0.0142147
0.0129785
0.012849
0.0129153
0.0125509
0.0124901
0.0121922
0.0119845
0.0118397
0.011835
0.0116716
0.0115444
0.0114362
0.0113645
0.0112314
0.0111401
0.0110455
0.0109525
0.0108373
0.0107521
0.0106571
0.0105612
0.0104601
0.0103758
0.0102822
0.0101918
0.0101033
0.0100238
0.00993923
0.00986108
0.00978619
0.00971639
0.00964515
0.00958026
0.00951752
0.00945775
0.00939844
0.00934397
0.00929055
0.00923935
0.00918929
0.00914235
0.00909589
0.00905121
0.00900738
0.00896527
0.00892348
0.00888272
0.00884205
0.00880207
0.00876177
0.00872115
0.00867989
0.00863853
0.0085966
0.00855465
0.00851378
0.00847464
0.00843795
0.00840456
0.00837572
0.00835082
0.00833079
0.0083145
0.00830244
0.00829245
0.00828571
0.00827901
0.0082742
0.00826836
0.00826405
0.00825674
0.00825105
0.008242
0.00823356
0.00821919
0.00820616
0.00818649
0.00816737
0.0081412
0.00811921
0.00809072
0.00806681
0.00803636
0.00801245
0.0079794
0.0079515
0.0079137
0.00788301
0.0078412
0.00780768
0.00776341
0.00772855
0.00768045
0.00764181
0.00758899
0.00754663
0.00749007
0.00744662
0.0073892
0.00734548
0.00728608
0.00723881
0.00717244
0.00711694
0.00704206
0.00697992
0.0069018
0.00684114
0.0067686
0.00671546
0.00665118
0.00660349
0.0065409
0.00648924
0.00641985
0.00635763
0.00627841
0.00620771
0.00612594
0.00605608
0.00598225
0.00592463
0.00586832
0.00582875
0.00579376
0.00577452
0.00575951
0.00575722
0.00575903
0.00576989
0.00578269
0.00580175
0.00582181
0.00584466
0.00586699
0.00589073
0.00591302
0.0059344
0.00595395
0.00597228
0.0059881
0.00600185
0.00601377
0.006024
0.00603224
0.00603915
0.00604523
0.00605046
0.00605503
0.00605952
0.00606417
0.00606885
0.00607376
0.00607911
0.00608481
0.00609063
0.00609662
0.00610273
0.00610871
0.00611436
0.00611969
0.00612457
0.00612885
0.00613255
0.00613578
0.00613852
0.00614083
0.00614288
0.00614472
0.00614637
0.00614786
0.00614924
0.00615043
0.00615136
0.00615196
0.00615216
0.00615179
0.00615073
0.00614894
0.00614636
0.00614294
0.00613874
0.00613388
0.00612845
0.00612255
0.00611635
0.00610997
0.00610351
0.00609707
0.00609082
0.00608491
0.00607953
0.00607489
0.00607121
0.00606869
0.00606744
0.00606751
0.00606888
0.00607139
0.00607486
0.00607903
0.00608366
0.00608852
0.00609346
0.00609845
0.00610362
0.00610924
0.00611577
0.00612377
0.00613387
0.00614663
0.0061625
0.00618167
0.00620409
0.0062294
0.00625699
0.00628604
0.00631559
0.00634464
0.00637215
0.0063972
0.00641894
0.00643667
0.00644986
0.00645819
0.00646157
0.00646013
0.00645424
0.00644448
0.00643162
0.00641649
0.00639999
0.00638296
0.00636613
0.00635008
0.00633518
0.0063216
0.00630936
0.0062983
0.00628822
0.00627888
0.00627008
0.00626174
0.00625386
0.00624663
0.00624033
0.00623536
0.00623218
0.00623122
0.00623285
0.0062373
0.00624461
0.0062546
0.00626689
0.00628089
0.00629591
0.00631121
0.00632608
0.00633995
0.00635237
0.0063631
0.00637208
0.0063794
0.00638529
0.0063901
0.00639429
0.00639838
0.00640292
0.00640847
0.0064155
0.00642431
0.00643503
0.00644754
0.00646142
0.00647599
0.00649032
0.00650333
0.00651385
0.00652084
0.00652351
0.00652142
0.00651462
0.00650365
0.00648945
0.00647324
0.00645635
0.00644002
0.00642513
0.00641211
0.00640085
0.00639074
0.00638077
0.00636966
0.00635613
0.006339
0.00631741
0.00629095
0.00625976
0.00622453
0.00618644
0.00614694
0.00610759
0.0060699
0.00603524
0.00600489
0.00598005
0.00596184
0.00595125
0.00594903
0.00595553
0.00597066
0.00599392
0.00602439
0.00606085
0.00610174
0.00614521
0.00618911
0.00623109
0.00626889
0.00630069
0.00632542
0.00634294
0.00635395
0.00635958
0.00636086
0.00635819
0.00635114
0.00633855
0.0063191
0.00629188
0.00625707
0.00621613
0.00617164
0.00612673
0.00608433
0.00604646
0.00601374
0.0059854
0.00595953
0.00593372
0.00590572
0.005874
0.00583816
0.00579904
0.00575851
0.00571917
0.0056839
0.00565545
0.0056361
0.00562745
0.00563029
0.00564468
0.00566998
0.00570501
0.00574822
0.00579782
0.00585193
0.00590872
0.00596643
0.00602352
0.00607865
0.00613072
0.00617886
0.00622242
0.00626099
0.00629435
0.00632245
0.00634542
0.00636356
0.00637731
0.00638724
0.00639405
0.0063985
0.00640141
0.00640358
0.0064058
0.00640873
0.00641293
0.00641877
0.00642648
0.006436
0.00644717
0.00645956
0.00647267
0.00648577
0.00649823
0.00650919
0.00651797
0.00652408
0.00652758
0.00652683
0.00652149
0.00652149
0.04
0.0276278
0.030111
0.0276364
0.0199571
0.0180704
0.0209082
0.0217871
0.0200249
0.0189803
0.0188714
0.0186856
0.0183005
0.0181685
0.0179628
0.0176592
0.017438
0.0173565
0.0171827
0.0169816
0.0168354
0.016723
0.016561
0.0164162
0.0162981
0.0161764
0.0160348
0.0159162
0.015806
0.0156886
0.0155699
0.015469
0.0153697
0.0152697
0.0151778
0.0150983
0.0150201
0.0149469
0.0148831
0.0148265
0.0147718
0.014723
0.0146802
0.0146406
0.0146027
0.014569
0.0145382
0.0145087
0.0144811
0.0144564
0.0144333
0.0144119
0.0143926
0.0143755
0.01436
0.0143463
0.014334
0.014323
0.0143132
0.0143042
0.0142966
0.0142907
0.0142871
0.0142865
0.0142904
0.0142986
0.0143129
0.014333
0.0143593
0.0143903
0.0144282
0.0144692
0.0145141
0.0145608
0.0146121
0.0146614
0.0147133
0.0147642
0.0148181
0.014866
0.0149165
0.0149621
0.0150085
0.0150444
0.0150837
0.0151142
0.0151472
0.0151685
0.0151973
0.0152143
0.0152361
0.0152423
0.0152563
0.0152521
0.0152542
0.0152371
0.0152305
0.0152021
0.0151844
0.0151433
0.0151141
0.0150583
0.0150171
0.0149487
0.0148979
0.0148197
0.0147612
0.014672
0.0146031
0.0145
0.0144165
0.0142987
0.0142053
0.0140787
0.0139826
0.0138592
0.0137681
0.0136483
0.0135615
0.0134427
0.0133497
0.0132232
0.0131219
0.0129872
0.0128783
0.0127453
0.0126421
0.0125214
0.0124344
0.0123383
0.0122745
0.012205
0.0121661
0.0121233
0.0121048
0.0120829
0.012081
0.0120749
0.0120824
0.0120864
0.0121001
0.0121092
0.0121242
0.0121356
0.0121502
0.0121607
0.0121727
0.0121819
0.0121912
0.0121976
0.0122042
0.0122092
0.0122138
0.0122173
0.0122213
0.012225
0.012229
0.0122333
0.0122386
0.0122443
0.0122507
0.0122578
0.0122656
0.0122737
0.012282
0.0122905
0.012299
0.0123072
0.012315
0.0123224
0.0123292
0.0123354
0.0123412
0.0123464
0.0123512
0.0123557
0.0123599
0.0123638
0.0123675
0.0123709
0.012374
0.0123767
0.0123789
0.0123807
0.0123818
0.0123821
0.0123817
0.0123805
0.0123785
0.0123759
0.0123727
0.0123691
0.0123651
0.0123608
0.0123564
0.0123521
0.0123478
0.0123439
0.0123406
0.0123381
0.0123366
0.0123364
0.0123375
0.0123401
0.0123442
0.0123495
0.0123559
0.0123632
0.0123711
0.0123793
0.0123877
0.0123963
0.0124052
0.0124146
0.0124251
0.0124371
0.0124513
0.0124681
0.0124879
0.0125109
0.012537
0.0125656
0.0125963
0.012628
0.0126599
0.0126908
0.0127197
0.0127456
0.0127677
0.0127852
0.0127977
0.0128048
0.0128065
0.012803
0.0127948
0.0127825
0.012767
0.0127492
0.01273
0.0127105
0.0126912
0.0126729
0.0126558
0.0126402
0.012626
0.0126132
0.0126016
0.0125909
0.012581
0.0125719
0.0125635
0.0125561
0.0125501
0.0125456
0.0125433
0.0125434
0.0125462
0.0125519
0.0125606
0.012572
0.0125857
0.0126011
0.0126175
0.0126342
0.0126503
0.0126653
0.0126786
0.0126901
0.0126995
0.012707
0.012713
0.0127177
0.0127219
0.0127259
0.0127306
0.0127364
0.0127437
0.0127527
0.0127636
0.0127759
0.0127892
0.0128028
0.0128157
0.0128267
0.012835
0.0128394
0.0128395
0.0128347
0.0128252
0.0128117
0.0127949
0.012776
0.0127564
0.0127372
0.0127192
0.0127029
0.0126883
0.0126747
0.0126614
0.012647
0.0126306
0.012611
0.0125875
0.0125596
0.0125276
0.0124922
0.0124545
0.0124159
0.0123779
0.012342
0.0123095
0.0122819
0.0122602
0.0122455
0.0122389
0.0122409
0.0122519
0.0122716
0.0122994
0.0123342
0.0123747
0.012419
0.0124652
0.012511
0.012554
0.0125919
0.0126229
0.012646
0.0126612
0.0126692
0.0126711
0.0126679
0.0126602
0.0126476
0.0126291
0.0126037
0.0125708
0.0125308
0.0124852
0.0124369
0.012389
0.0123442
0.0123046
0.0122708
0.0122418
0.0122159
0.0121907
0.0121641
0.0121347
0.0121023
0.0120679
0.0120334
0.0120017
0.0119755
0.0119576
0.0119502
0.0119547
0.0119718
0.0120011
0.0120418
0.0120924
0.0121512
0.0122159
0.0122846
0.0123552
0.0124258
0.0124947
0.0125604
0.012622
0.0126785
0.0127293
0.0127741
0.0128127
0.0128453
0.0128721
0.0128935
0.0129101
0.0129225
0.0129316
0.0129382
0.0129433
0.0129476
0.0129519
0.012957
0.0129633
0.0129712
0.0129808
0.012992
0.0130046
0.013018
0.0130317
0.013045
0.0130571
0.0130675
0.0130754
0.0130801
0.0130811
0.0130785
0.0130729
0.0130729
0.04
0.0278907
0.0265322
0.0240141
0.0251521
0.0271683
0.0262799
0.0243945
0.0243254
0.0247908
0.0242499
0.0234945
0.0232235
0.0230853
0.0227282
0.0224503
0.0222633
0.0220384
0.0217746
0.0216068
0.0214443
0.0212473
0.0210567
0.0209165
0.0207613
0.0205977
0.0204508
0.0203231
0.0201824
0.0200483
0.019929
0.0198168
0.0197011
0.0195989
0.0195082
0.019423
0.019343
0.0192772
0.0192198
0.0191682
0.0191244
0.0190906
0.0190612
0.0190363
0.0190168
0.0190019
0.0189887
0.0189783
0.018971
0.0189658
0.0189624
0.0189618
0.0189636
0.0189681
0.0189751
0.0189845
0.0189965
0.0190109
0.0190272
0.0190455
0.0190668
0.0190905
0.0191175
0.0191491
0.0191861
0.0192284
0.0192781
0.0193345
0.0193978
0.0194672
0.0195441
0.0196246
0.0197103
0.0197992
0.019892
0.0199842
0.0200808
0.0201769
0.0202747
0.0203691
0.0204676
0.0205599
0.0206522
0.0207374
0.0208258
0.0209032
0.0209829
0.0210538
0.02113
0.0211919
0.0212589
0.0213109
0.0213677
0.0214039
0.021446
0.0214669
0.0214955
0.0214993
0.0215124
0.0214987
0.0214953
0.0214609
0.0214399
0.0213871
0.0213503
0.0212799
0.0212299
0.0211418
0.021074
0.0209655
0.0208795
0.0207483
0.0206459
0.0205017
0.0203917
0.0202416
0.0201335
0.0199833
0.0198741
0.0197201
0.0196056
0.0194406
0.019315
0.0191413
0.0190089
0.0188334
0.0187059
0.0185433
0.0184315
0.0182918
0.0182043
0.018093
0.01803
0.0179469
0.0179067
0.0178475
0.0178243
0.0177845
0.0177737
0.0177473
0.0177437
0.017727
0.0177271
0.0177157
0.017717
0.017709
0.0177094
0.0177023
0.0177014
0.017695
0.0176923
0.0176861
0.017683
0.0176776
0.0176746
0.0176709
0.0176695
0.017668
0.0176685
0.0176697
0.0176726
0.0176761
0.0176808
0.0176861
0.017692
0.0176981
0.0177044
0.0177106
0.0177166
0.0177222
0.0177275
0.0177324
0.0177369
0.0177412
0.0177453
0.0177493
0.0177532
0.0177571
0.017761
0.0177647
0.0177683
0.0177716
0.0177745
0.0177769
0.0177787
0.0177798
0.0177802
0.0177798
0.0177788
0.0177771
0.0177748
0.0177722
0.0177692
0.017766
0.0177628
0.0177596
0.0177567
0.0177542
0.0177523
0.0177512
0.0177511
0.0177522
0.0177546
0.0177584
0.0177634
0.0177696
0.0177768
0.0177847
0.017793
0.0178016
0.0178103
0.0178191
0.0178281
0.0178377
0.0178483
0.0178603
0.0178743
0.0178908
0.0179101
0.0179325
0.0179577
0.0179855
0.0180153
0.0180462
0.0180773
0.0181076
0.018136
0.0181615
0.0181833
0.0182008
0.0182133
0.0182207
0.0182229
0.0182202
0.0182131
0.0182022
0.0181884
0.0181724
0.0181553
0.0181377
0.0181202
0.0181035
0.0180878
0.0180732
0.0180598
0.0180475
0.0180362
0.0180257
0.018016
0.018007
0.017999
0.0179919
0.0179862
0.017982
0.0179797
0.0179797
0.0179822
0.0179873
0.0179952
0.0180058
0.0180187
0.0180336
0.0180498
0.0180665
0.0180831
0.0180987
0.0181128
0.018125
0.0181351
0.018143
0.0181491
0.0181539
0.0181579
0.0181618
0.0181663
0.0181719
0.018179
0.0181879
0.0181983
0.0182101
0.0182227
0.0182353
0.0182472
0.0182576
0.0182655
0.0182702
0.0182712
0.0182683
0.0182613
0.0182508
0.0182372
0.0182215
0.0182047
0.0181875
0.0181709
0.0181552
0.0181406
0.0181268
0.0181131
0.0180988
0.018083
0.0180648
0.0180436
0.018019
0.0179911
0.0179603
0.0179276
0.0178941
0.0178609
0.0178293
0.0178007
0.0177762
0.0177569
0.0177441
0.0177385
0.017741
0.0177518
0.0177709
0.0177978
0.0178314
0.0178707
0.0179139
0.0179591
0.0180043
0.0180471
0.0180854
0.0181176
0.0181427
0.0181604
0.0181715
0.0181767
0.0181772
0.0181731
0.0181644
0.0181502
0.0181295
0.0181019
0.0180676
0.0180281
0.0179858
0.0179437
0.0179043
0.0178696
0.0178401
0.0178152
0.0177933
0.0177721
0.0177497
0.0177246
0.0176966
0.0176665
0.017636
0.0176078
0.0175846
0.0175689
0.017563
0.0175683
0.0175856
0.0176147
0.0176548
0.0177046
0.0177624
0.0178263
0.0178942
0.0179642
0.0180343
0.018103
0.0181689
0.0182308
0.0182879
0.0183396
0.0183854
0.0184252
0.018459
0.0184872
0.0185099
0.0185278
0.0185415
0.0185518
0.0185596
0.0185657
0.0185709
0.018576
0.0185818
0.0185887
0.018597
0.0186068
0.0186182
0.0186308
0.0186442
0.0186579
0.0186712
0.0186834
0.0186938
0.0187019
0.0187072
0.0187089
0.0187074
0.0187025
0.0187025
0.04
0.0296094
0.0309493
0.0313187
0.0314233
0.0290336
0.0274147
0.0283434
0.0291952
0.0280794
0.0270184
0.0270923
0.0271497
0.026626
0.0261841
0.0260754
0.0258637
0.0255434
0.0253273
0.0251814
0.0249465
0.024726
0.0245706
0.0244139
0.024215
0.0240521
0.0239145
0.0237644
0.0236061
0.023478
0.0233553
0.0232274
0.0231082
0.0230099
0.022913
0.0228211
0.0227438
0.0226809
0.0226217
0.0225734
0.0225384
0.0225126
0.0224915
0.0224802
0.0224763
0.0224764
0.0224796
0.0224881
0.0224991
0.0225121
0.0225274
0.0225458
0.0225664
0.0225897
0.0226153
0.0226439
0.0226755
0.0227093
0.022745
0.0227841
0.022826
0.0228704
0.022919
0.022973
0.0230322
0.0230975
0.0231706
0.0232509
0.0233385
0.0234331
0.0235346
0.023641
0.0237535
0.0238689
0.023988
0.0241093
0.0242347
0.0243588
0.0244859
0.0246128
0.0247413
0.0248641
0.0249891
0.0251093
0.0252291
0.02534
0.0254548
0.0255618
0.0256702
0.0257674
0.0258696
0.0259578
0.0260467
0.0261181
0.0261937
0.0262487
0.026307
0.0263436
0.0263863
0.0264027
0.0264261
0.0264208
0.0264242
0.0263966
0.0263819
0.0263331
0.0263
0.02623
0.0261765
0.0260803
0.026005
0.0258835
0.0257869
0.0256462
0.0255395
0.0253866
0.0252757
0.0251183
0.0250037
0.0248353
0.0247132
0.0245311
0.0243952
0.024199
0.0240563
0.0238549
0.0237145
0.0235225
0.023398
0.023226
0.0231244
0.0229798
0.0229036
0.0227859
0.0227324
0.02264
0.0226043
0.0225316
0.0225087
0.0224523
0.0224369
0.0223917
0.0223809
0.0223444
0.0223345
0.0223037
0.0222941
0.0222671
0.0222557
0.0222318
0.0222199
0.0221983
0.0221859
0.0221676
0.0221564
0.0221415
0.0221324
0.0221221
0.0221161
0.0221096
0.0221068
0.0221044
0.0221042
0.0221042
0.022106
0.0221078
0.0221103
0.0221126
0.0221152
0.0221175
0.0221197
0.0221216
0.0221236
0.0221254
0.0221274
0.0221295
0.0221318
0.0221342
0.0221369
0.0221396
0.0221423
0.0221448
0.022147
0.0221488
0.0221501
0.0221507
0.0221506
0.0221498
0.0221484
0.0221464
0.022144
0.0221411
0.022138
0.0221347
0.0221315
0.0221285
0.0221258
0.0221237
0.0221223
0.0221218
0.0221224
0.0221241
0.0221272
0.0221316
0.0221373
0.0221441
0.0221519
0.0221603
0.0221692
0.0221783
0.0221875
0.022197
0.0222068
0.0222172
0.0222287
0.0222418
0.0222568
0.0222743
0.0222945
0.0223177
0.0223437
0.0223721
0.0224026
0.0224342
0.0224661
0.0224971
0.0225264
0.0225528
0.0225756
0.022594
0.0226075
0.022616
0.0226194
0.022618
0.0226124
0.0226031
0.0225911
0.0225771
0.0225618
0.0225461
0.0225303
0.022515
0.0225004
0.0224866
0.0224736
0.0224615
0.0224502
0.0224396
0.0224298
0.0224208
0.0224129
0.0224061
0.0224006
0.0223968
0.0223948
0.022395
0.0223975
0.0224026
0.0224105
0.022421
0.022434
0.0224493
0.0224662
0.0224841
0.0225021
0.0225195
0.0225355
0.0225495
0.0225612
0.0225706
0.022578
0.0225837
0.0225886
0.0225933
0.0225986
0.022605
0.022613
0.0226225
0.0226334
0.0226454
0.0226579
0.0226703
0.0226818
0.0226918
0.0226997
0.022705
0.0227073
0.0227063
0.022702
0.0226946
0.0226842
0.0226715
0.0226571
0.0226415
0.0226254
0.0226094
0.0225936
0.0225781
0.0225627
0.0225469
0.0225302
0.022512
0.0224919
0.0224695
0.0224449
0.0224182
0.0223899
0.022361
0.0223322
0.0223047
0.0222796
0.022258
0.022241
0.0222298
0.0222253
0.0222282
0.022239
0.0222576
0.0222837
0.0223166
0.0223549
0.0223972
0.0224418
0.0224864
0.022529
0.0225676
0.0226006
0.022627
0.0226465
0.0226595
0.0226667
0.0226688
0.0226662
0.0226588
0.0226458
0.0226267
0.0226009
0.0225688
0.0225317
0.0224918
0.0224516
0.0224136
0.0223795
0.0223501
0.0223247
0.0223021
0.0222802
0.0222572
0.0222318
0.0222037
0.0221737
0.0221434
0.0221152
0.0220917
0.0220756
0.0220689
0.0220732
0.0220893
0.0221171
0.022156
0.0222047
0.0222615
0.0223247
0.022392
0.0224617
0.0225319
0.0226008
0.022667
0.0227295
0.0227873
0.0228398
0.0228865
0.0229273
0.0229621
0.0229911
0.0230147
0.0230334
0.0230479
0.023059
0.0230674
0.023074
0.0230798
0.0230855
0.0230916
0.0230988
0.0231073
0.0231173
0.0231287
0.0231413
0.0231546
0.0231681
0.0231812
0.0231934
0.0232038
0.0232118
0.0232171
0.0232193
0.0232186
0.0232145
0.0232145
0.04
0.0308069
0.0319041
0.0305587
0.029927
0.0302837
0.0315396
0.0310263
0.029575
0.0293786
0.0301157
0.0298857
0.0290535
0.0287844
0.0288807
0.028642
0.0282502
0.0280782
0.0279498
0.027707
0.0274819
0.0273451
0.0271708
0.0269662
0.0268041
0.0266708
0.026504
0.0263432
0.0262117
0.0260847
0.0259437
0.0258207
0.0257134
0.0256061
0.0255004
0.0254142
0.0253372
0.0252646
0.025203
0.0251587
0.0251221
0.0250944
0.0250794
0.0250762
0.0250782
0.0250879
0.0251051
0.0251268
0.0251507
0.0251788
0.0252097
0.0252426
0.0252777
0.0253154
0.0253553
0.0253981
0.025443
0.0254899
0.0255396
0.0255921
0.0256465
0.0257043
0.0257669
0.0258336
0.0259057
0.0259851
0.0260718
0.0261652
0.0262667
0.0263755
0.0264908
0.0266118
0.0267385
0.0268684
0.0270028
0.02714
0.0272798
0.0274204
0.0275654
0.0277097
0.027854
0.0279973
0.028143
0.0282823
0.0284211
0.0285571
0.0286944
0.0288231
0.0289539
0.0290791
0.0292047
0.0293174
0.0294312
0.0295318
0.0296314
0.0297136
0.0297972
0.0298625
0.0299295
0.0299743
0.0300221
0.0300459
0.0300738
0.0300742
0.0300827
0.0300619
0.0300496
0.0300046
0.0299719
0.0298993
0.0298404
0.0297414
0.0296616
0.0295375
0.0294435
0.0293065
0.029204
0.0290544
0.0289471
0.0287837
0.0286633
0.0284814
0.0283479
0.0281465
0.0280027
0.0277927
0.0276504
0.0274434
0.027315
0.0271246
0.027018
0.0268499
0.0267681
0.026625
0.026565
0.0264441
0.0264021
0.0263005
0.0262701
0.0261839
0.0261616
0.0260876
0.0260685
0.0260045
0.0259871
0.0259303
0.0259118
0.0258617
0.025842
0.0257964
0.0257753
0.0257352
0.0257137
0.0256785
0.0256584
0.0256295
0.025612
0.0255891
0.0255755
0.0255591
0.0255492
0.0255379
0.0255316
0.0255244
0.0255203
0.0255157
0.025513
0.0255097
0.0255074
0.0255047
0.0255026
0.0255001
0.0254981
0.0254962
0.0254948
0.0254937
0.0254933
0.0254933
0.0254937
0.0254944
0.0254954
0.0254964
0.0254972
0.0254977
0.0254978
0.0254973
0.0254963
0.0254946
0.0254924
0.0254896
0.0254865
0.0254831
0.0254795
0.0254758
0.0254723
0.0254692
0.0254665
0.0254645
0.0254634
0.0254634
0.0254645
0.0254669
0.0254705
0.0254755
0.0254818
0.0254891
0.0254972
0.025506
0.0255153
0.0255247
0.0255344
0.0255443
0.0255547
0.0255658
0.0255781
0.0255919
0.0256077
0.0256259
0.0256468
0.0256704
0.0256967
0.0257253
0.0257559
0.0257875
0.0258194
0.0258506
0.02588
0.0259066
0.0259296
0.0259483
0.0259623
0.0259713
0.0259755
0.0259751
0.0259707
0.025963
0.0259525
0.0259402
0.0259267
0.0259126
0.0258984
0.0258843
0.0258706
0.0258575
0.0258449
0.0258328
0.0258213
0.0258104
0.0258003
0.025791
0.0257828
0.0257757
0.0257701
0.0257661
0.025764
0.0257639
0.0257661
0.0257708
0.0257782
0.0257883
0.0258011
0.0258163
0.0258334
0.0258517
0.0258705
0.0258889
0.025906
0.0259212
0.0259341
0.0259445
0.0259527
0.0259591
0.0259645
0.0259696
0.0259751
0.0259817
0.0259895
0.0259988
0.0260093
0.0260205
0.026032
0.0260431
0.0260533
0.0260621
0.0260693
0.0260744
0.0260771
0.0260774
0.0260751
0.02607
0.0260622
0.0260518
0.0260391
0.0260244
0.0260083
0.0259911
0.0259735
0.0259556
0.0259376
0.0259196
0.0259014
0.0258827
0.0258632
0.0258427
0.0258212
0.0257985
0.0257749
0.0257508
0.0257267
0.0257033
0.0256816
0.0256627
0.0256475
0.0256372
0.0256327
0.0256348
0.025644
0.0256605
0.025684
0.0257139
0.0257491
0.0257883
0.0258297
0.0258714
0.0259115
0.0259481
0.0259796
0.0260052
0.0260245
0.0260377
0.0260452
0.0260476
0.0260451
0.0260376
0.0260247
0.0260058
0.0259808
0.02595
0.0259146
0.0258766
0.025838
0.0258011
0.0257674
0.0257377
0.0257115
0.0256877
0.0256646
0.0256407
0.0256147
0.0255864
0.0255564
0.0255262
0.0254982
0.0254747
0.0254582
0.0254509
0.0254542
0.025469
0.0254954
0.0255326
0.0255796
0.0256348
0.0256964
0.0257623
0.0258306
0.0258996
0.0259675
0.026033
0.0260948
0.0261522
0.0262043
0.0262509
0.0262915
0.0263263
0.0263553
0.026379
0.0263977
0.0264122
0.0264232
0.0264316
0.0264383
0.0264439
0.0264494
0.0264554
0.0264623
0.0264704
0.0264799
0.0264906
0.0265025
0.0265149
0.0265276
0.0265399
0.0265512
0.026561
0.0265687
0.0265738
0.0265761
0.0265754
0.0265716
0.0265716
0.04
0.0287989
0.0292947
0.0305599
0.0313622
0.0312924
0.0310747
0.030592
0.0310251
0.0314938
0.0310304
0.0303374
0.0304656
0.0307011
0.030371
0.0299452
0.0299015
0.0298832
0.0296363
0.0294055
0.0293087
0.0291783
0.0289769
0.0288264
0.0287105
0.0285581
0.0283961
0.0282752
0.028155
0.0280165
0.0278895
0.0277857
0.0276754
0.0275638
0.0274679
0.0273838
0.0272977
0.0272216
0.027161
0.0271098
0.0270649
0.0270355
0.0270199
0.0270134
0.0270161
0.0270312
0.0270537
0.0270815
0.0271148
0.0271532
0.0271938
0.0272372
0.0272829
0.0273308
0.0273809
0.027433
0.0274863
0.0275423
0.0276006
0.0276602
0.027722
0.027788
0.0278572
0.0279301
0.0280096
0.0280958
0.0281882
0.0282881
0.0283963
0.0285111
0.0286325
0.02876
0.0288925
0.0290292
0.0291703
0.0293136
0.0294602
0.0296099
0.029762
0.0299134
0.0300679
0.0302229
0.0303765
0.030527
0.03068
0.03083
0.030978
0.0311225
0.0312701
0.0314117
0.031551
0.0316831
0.0318152
0.0319352
0.0320511
0.032155
0.0322579
0.0323446
0.0324297
0.0324988
0.0325667
0.0326146
0.0326635
0.0326903
0.0327186
0.0327237
0.032733
0.0327132
0.0326992
0.0326541
0.0326149
0.0325401
0.0324793
0.0323808
0.0323017
0.032186
0.0320983
0.0319664
0.0318688
0.031721
0.0316094
0.0314378
0.0313113
0.0311179
0.0309785
0.0307706
0.0306313
0.0304216
0.0302933
0.0300943
0.0299869
0.0298053
0.0297208
0.0295596
0.029497
0.0293542
0.0293082
0.0291822
0.0291482
0.0290351
0.0290081
0.0289071
0.0288833
0.0287914
0.0287685
0.0286857
0.028661
0.0285853
0.0285589
0.0284904
0.0284615
0.0283999
0.0283707
0.0283166
0.028288
0.0282423
0.0282169
0.0281797
0.028158
0.0281293
0.0281122
0.0280904
0.0280769
0.0280608
0.0280501
0.0280375
0.0280284
0.0280181
0.0280098
0.0280006
0.0279928
0.0279847
0.0279776
0.0279706
0.0279647
0.0279593
0.0279549
0.0279513
0.0279485
0.0279462
0.0279444
0.0279429
0.0279413
0.0279396
0.0279376
0.0279351
0.0279321
0.0279286
0.0279247
0.0279203
0.0279156
0.0279107
0.0279057
0.0279008
0.0278962
0.0278921
0.0278886
0.0278861
0.0278845
0.0278842
0.0278851
0.0278873
0.0278909
0.0278957
0.0279017
0.0279086
0.0279164
0.0279248
0.0279335
0.0279426
0.0279518
0.0279615
0.0279717
0.0279828
0.0279951
0.028009
0.0280249
0.0280431
0.0280638
0.0280871
0.0281128
0.0281408
0.0281706
0.0282015
0.0282326
0.028263
0.0282917
0.0283178
0.0283403
0.0283587
0.0283726
0.0283818
0.0283863
0.0283866
0.0283831
0.0283764
0.0283673
0.0283563
0.0283441
0.0283311
0.0283178
0.0283044
0.0282911
0.028278
0.0282651
0.0282525
0.0282403
0.0282286
0.0282175
0.0282073
0.028198
0.02819
0.0281835
0.0281785
0.0281753
0.0281742
0.0281753
0.0281789
0.0281851
0.0281941
0.0282059
0.0282201
0.0282365
0.0282545
0.0282731
0.0282915
0.028309
0.0283246
0.0283379
0.0283488
0.0283573
0.0283639
0.0283693
0.0283743
0.0283794
0.0283853
0.0283922
0.0284002
0.0284091
0.0284185
0.028428
0.028437
0.0284452
0.0284523
0.0284581
0.0284625
0.0284653
0.0284663
0.0284653
0.028462
0.028456
0.0284472
0.0284355
0.028421
0.028404
0.0283851
0.0283649
0.028344
0.0283229
0.028302
0.0282816
0.0282618
0.0282425
0.0282235
0.0282047
0.0281858
0.0281667
0.0281471
0.0281275
0.028108
0.0280895
0.0280728
0.0280589
0.0280488
0.0280435
0.0280438
0.0280502
0.0280633
0.0280828
0.0281084
0.0281391
0.0281738
0.0282109
0.0282487
0.0282853
0.028319
0.0283486
0.0283731
0.028392
0.0284052
0.0284129
0.0284154
0.0284128
0.0284052
0.0283923
0.0283738
0.0283498
0.0283206
0.0282872
0.028251
0.028214
0.028178
0.0281444
0.0281138
0.0280863
0.0280609
0.0280362
0.0280109
0.027984
0.0279552
0.027925
0.0278948
0.0278666
0.0278427
0.0278253
0.0278167
0.0278183
0.0278309
0.0278548
0.0278894
0.0279336
0.027986
0.0280447
0.028108
0.028174
0.0282407
0.0283067
0.0283704
0.0284308
0.0284869
0.028538
0.0285836
0.0286236
0.0286577
0.0286862
0.0287094
0.0287277
0.0287417
0.0287523
0.0287602
0.0287664
0.0287715
0.0287764
0.0287817
0.0287878
0.028795
0.0288034
0.0288131
0.0288237
0.0288349
0.0288463
0.0288574
0.0288676
0.0288764
0.0288834
0.0288881
0.0288904
0.0288899
0.0288865
0.0288865
0.04
0.0287102
0.0294131
0.0299947
0.0302447
0.0303723
0.0306277
0.0311687
0.0315908
0.0310665
0.0308252
0.0313298
0.0315517
0.0310454
0.030803
0.0310328
0.0310541
0.030733
0.0305799
0.0306121
0.0305109
0.0303075
0.0302053
0.0301412
0.0300003
0.0298566
0.029767
0.0296667
0.0295327
0.0294223
0.029334
0.0292293
0.0291178
0.0290289
0.0289449
0.0288525
0.0287675
0.0286993
0.0286332
0.0285708
0.0285237
0.0284914
0.0284657
0.0284522
0.0284546
0.0284677
0.0284875
0.0285178
0.028556
0.0285982
0.0286441
0.0286944
0.0287468
0.0288011
0.0288574
0.0289151
0.0289744
0.0290358
0.0290978
0.0291612
0.0292279
0.0292966
0.0293675
0.0294438
0.029526
0.0296129
0.0297068
0.0298093
0.0299186
0.0300341
0.0301571
0.030286
0.0304195
0.0305575
0.0306994
0.0308441
0.0309931
0.0311444
0.0312972
0.0314528
0.0316118
0.0317691
0.0319263
0.0320854
0.0322451
0.0323999
0.0325558
0.032713
0.0328688
0.0330183
0.0331693
0.0333162
0.0334579
0.0335899
0.0337199
0.0338396
0.0339541
0.0340567
0.0341561
0.0342427
0.0343255
0.0343926
0.0344569
0.0345051
0.0345502
0.0345758
0.0346018
0.0346054
0.034607
0.0345845
0.0345641
0.0345128
0.0344675
0.0343946
0.0343322
0.0342371
0.0341636
0.0340541
0.0339667
0.0338363
0.0337358
0.0335803
0.0334604
0.0332805
0.0331481
0.032949
0.0328133
0.0326088
0.032483
0.0322832
0.032176
0.0319894
0.0319045
0.0317324
0.0316683
0.0315112
0.0314633
0.031318
0.0312817
0.0311473
0.0311171
0.0309916
0.030965
0.0308483
0.030821
0.0307127
0.0306843
0.0305838
0.0305518
0.03046
0.0304258
0.0303421
0.030306
0.0302324
0.030197
0.0301333
0.0301005
0.0300482
0.0300194
0.029977
0.0299528
0.0299198
0.0298993
0.0298729
0.0298555
0.0298342
0.0298183
0.0297999
0.0297853
0.0297689
0.0297549
0.0297402
0.0297274
0.0297145
0.0297032
0.0296927
0.0296836
0.0296754
0.0296685
0.0296623
0.0296569
0.0296519
0.0296472
0.0296424
0.0296374
0.029632
0.0296263
0.0296202
0.0296136
0.0296067
0.0295996
0.0295923
0.0295851
0.0295781
0.0295715
0.0295655
0.0295604
0.0295564
0.0295536
0.0295521
0.0295521
0.0295533
0.029556
0.0295598
0.0295648
0.0295707
0.0295773
0.0295844
0.029592
0.0295998
0.029608
0.0296166
0.029626
0.0296364
0.0296482
0.0296616
0.029677
0.0296946
0.0297145
0.0297369
0.0297616
0.0297883
0.0298167
0.0298461
0.0298758
0.0299047
0.029932
0.0299567
0.0299781
0.0299956
0.0300088
0.0300175
0.0300219
0.0300223
0.0300191
0.030013
0.0300044
0.0299941
0.0299824
0.0299699
0.0299568
0.0299434
0.0299298
0.0299161
0.0299025
0.0298889
0.0298756
0.0298626
0.0298502
0.0298384
0.0298276
0.0298179
0.0298096
0.029803
0.0297981
0.0297954
0.0297949
0.029797
0.0298018
0.0298093
0.0298196
0.0298325
0.0298476
0.0298643
0.0298819
0.0298995
0.0299163
0.0299316
0.0299448
0.0299556
0.0299642
0.0299708
0.029976
0.0299804
0.0299847
0.0299893
0.0299946
0.0300007
0.0300073
0.0300142
0.0300211
0.0300277
0.0300336
0.0300387
0.030043
0.0300464
0.0300487
0.0300498
0.0300492
0.0300466
0.0300415
0.0300333
0.0300218
0.0300069
0.0299887
0.0299679
0.029945
0.0299211
0.0298969
0.0298732
0.0298506
0.0298295
0.02981
0.0297922
0.0297758
0.0297603
0.0297452
0.0297301
0.0297147
0.0296991
0.0296836
0.0296691
0.0296564
0.0296463
0.02964
0.0296381
0.0296416
0.0296507
0.0296658
0.0296865
0.0297123
0.029742
0.0297743
0.0298075
0.02984
0.0298705
0.0298976
0.0299205
0.0299386
0.0299515
0.0299591
0.0299615
0.0299587
0.0299507
0.0299374
0.0299191
0.0298956
0.0298676
0.0298358
0.0298013
0.0297657
0.0297304
0.0296966
0.0296651
0.0296359
0.0296084
0.0295816
0.0295544
0.0295261
0.0294963
0.0294656
0.029435
0.0294065
0.0293821
0.029364
0.0293541
0.0293541
0.0293647
0.0293862
0.0294181
0.0294595
0.0295089
0.0295648
0.0296252
0.0296883
0.0297524
0.0298159
0.0298774
0.0299357
0.02999
0.0300394
0.0300836
0.0301223
0.0301553
0.0301827
0.0302049
0.0302223
0.0302356
0.0302454
0.0302526
0.030258
0.0302624
0.0302665
0.030271
0.0302762
0.0302824
0.0302898
0.0302982
0.0303075
0.0303174
0.0303275
0.0303373
0.0303463
0.0303541
0.0303603
0.0303644
0.0303664
0.030366
0.0303631
0.0303631
0.04
0.0294387
0.030006
0.0296906
0.0300763
0.0305424
0.0307422
0.0307991
0.0308086
0.0309931
0.0314732
0.0314422
0.0311074
0.0311804
0.0315336
0.031459
0.0311781
0.0311851
0.0313258
0.0312252
0.0310502
0.0310244
0.0310219
0.0309071
0.0307937
0.0307457
0.0306773
0.0305671
0.0304812
0.0304176
0.03033
0.0302345
0.0301601
0.0300882
0.0300015
0.0299209
0.0298529
0.0297831
0.0297113
0.0296527
0.0296048
0.0295614
0.0295284
0.0295123
0.0295073
0.0295117
0.029529
0.0295581
0.0295935
0.0296356
0.0296843
0.0297367
0.0297917
0.0298498
0.0299091
0.02997
0.0300327
0.0300959
0.0301595
0.0302256
0.030293
0.0303612
0.0304332
0.0305101
0.0305904
0.0306763
0.0307705
0.0308712
0.0309782
0.031093
0.0312147
0.0313413
0.0314731
0.0316093
0.0317493
0.031893
0.03204
0.032189
0.0323421
0.0324986
0.0326555
0.0328132
0.032975
0.0331367
0.0332963
0.0334568
0.0336209
0.0337821
0.0339413
0.0341007
0.0342607
0.0344138
0.0345623
0.034706
0.0348457
0.0349745
0.0350974
0.0352127
0.0353227
0.0354205
0.0355141