# vtk DataFile Version 3.0
LBM output step 690
ASCII
DATASET STRUCTURED_POINTS
DIMENSIONS 400 100 1
ORIGIN 0 0 0
SPACING 1 1 1
POINT_DATA 40000
SCALARS velocity_magnitude double 1
LOOKUP_TABLE default
0
0
0
0
0
0
0
0
0
0
0
0
0
0
0
0
0
0
0
0
0
0
0
0
0
0
0
0
0
0
0
0
0
0
0
0
0
0
0
0
0
0
0
0
0
0
0
0
0
0
0
0
0
0
0
0
0
0
0
0
0
0
0
0
0
0
0
0
0
0
0
0
0
0
0
0
0
0
0
0
0
0
0
0
0
0
0
0
0
0
0
0
0
0
0
0
0
0
0
0
0
0
0
0
0
0
0
0
0
0
0
0
0
0
0
0
0
0
0
0
0
0
0
0
0
0
0
0
0
0
0
0
0
0
0
0
0
0
0
0
0
0
0
0
0
0
0
0
0
0
0
0
0
0
0
0
0
0
0
0
0
0
0
0
0
0
0
0
0
0
0
0
0
0
0
0
0
0
0
0
0
0
0
0
0
0
0
0
0
0
0
0
0
0
0
0
0
0
0
0
0
0
0
0
0
0
0
0
0
0
0
0
0
0
0
0
0
0
0
0
0
0
0
0
0
0
0
0
0
0
0
0
0
0
0
0
0
0
0
0
0
0
0
0
0
0
0
0
0
0
0
0
0
0
0
0
0
0
0
0
0
0
0
0
0
0
0
0
0
0
0
0
0
0
0
0
0
0
0
0
0
0
0
0
0
0
0
0
0
0
0
0
0
0
0
0
0
0
0
0
0
0
0
0
0
0
0
0
0
0
0
0
0
0
0
0
0
0
0
0
0
0
0
0
0
0
0
0
0
0
0
0
0
0
0
0
0
0
0
0
0
0
0
0
0
0
0
0
0
0
0
0
0
0
0
0
0
0
0
0
0
0
0
0
0
0
0
0
0
0
0
0
0
0
0
0
0
0
0
0
0
0
0
0
0
0
0
0
0
0
0
0
0
0
0
0
0
0
0
0
0.04
0.0143089
0.00884544
0.0139797
0.0164122
0.0160582
0.0131475
0.0127123
0.0128515
0.0129847
0.0127087
0.01278
0.012581
0.0124591
0.0123691
0.0123911
0.0122425
0.0121393
0.0120367
0.0119467
0.0117766
0.0116393
0.0114822
0.011317
0.0111281
0.0109685
0.0107996
0.0106316
0.0104683
0.0103208
0.0101745
0.0100276
0.00989843
0.00976455
0.00964561
0.00951324
0.00941131
0.00928551
0.00919411
0.00907521
0.0089996
0.00888799
0.00882285
0.00872242
0.00866877
0.00857903
0.00853353
0.00845609
0.00841539
0.00834586
0.00830511
0.00824119
0.00819753
0.00813621
0.00809007
0.00803364
0.00798832
0.00793845
0.00789887
0.00785956
0.00782784
0.00779906
0.00777744
0.00775864
0.00774428
0.00773366
0.00772654
0.00772105
0.00771823
0.00771794
0.00771858
0.00772003
0.00772353
0.00772796
0.00773232
0.00773778
0.00774458
0.00775032
0.00775492
0.00775927
0.00776212
0.00776171
0.00776028
0.00775874
0.00775616
0.00775278
0.00775153
0.00775171
0.00775231
0.00775404
0.00775854
0.0077639
0.00776979
0.00777671
0.00778482
0.00779185
0.00779776
0.00780227
0.00780493
0.00780445
0.00780197
0.00779761
0.00779158
0.00778403
0.00777647
0.00776842
0.00776032
0.00775322
0.00774836
0.00774547
0.00774598
0.00775058
0.00775827
0.00776711
0.00777621
0.00778251
0.0077828
0.00777554
0.00776028
0.00773563
0.00770265
0.00766389
0.00762098
0.00757511
0.00752957
0.00748645
0.00744582
0.00740871
0.00737717
0.0073504
0.00732737
0.00730924
0.00729601
0.00728545
0.00727767
0.00727406
0.00727334
0.00727402
0.00727742
0.00728357
0.00729014
0.00729694
0.00730546
0.00731458
0.00732279
0.00733168
0.00734249
0.00735362
0.0073647
0.00737729
0.00739111
0.00740497
0.00742034
0.00743925
0.00746136
0.00748589
0.00751339
0.00754343
0.00757428
0.00760529
0.00763739
0.00767123
0.00770714
0.00774599
0.00778815
0.00783228
0.00787648
0.00791955
0.00796068
0.00799919
0.00803544
0.00807096
0.00810771
0.00814767
0.00819222
0.00824064
0.00828933
0.00833316
0.0083673
0.00838836
0.00839472
0.00838613
0.00836281
0.00832527
0.00827549
0.008218
0.0081591
0.00810484
0.00805899
0.00802203
0.00799209
0.00796753
0.00794895
0.00793911
0.00794063
0.00795355
0.0079744
0.00799781
0.00802001
0.00804185
0.00806922
0.00811013
0.00817011
0.00824848
0.00833769
0.00842625
0.00850416
0.00856775
0.00862175
0.00867758
0.00874873
0.00884513
0.00896901
0.00911342
0.00926387
0.00940205
0.00951047
0.00957649
0.00959476
0.00956746
0.00950291
0.00941303
0.00931062
0.00920716
0.00911156
0.00902978
0.00896518
0.00891913
0.00889173
0.00888231
0.00888959
0.00891171
0.00894618
0.0089898
0.00903879
0.00908905
0.00913648
0.00917732
0.0092084
0.00922724
0.00923211
0.00922201
0.00919658
0.00915618
0.00910193
0.00903567
0.00895993
0.00887773
0.0087922
0.00870632
0.00862253
0.00854262
0.00846773
0.0083985
0.00833536
0.00827873
0.00822929
0.00818793
0.0081558
0.00813407
0.00812368
0.00812511
0.00813806
0.00816136
0.00819304
0.00823058
0.00827142
0.00831358
0.00835624
0.00840013
0.00844756
0.00850204
0.00856761
0.00864792
0.00874558
0.00886181
0.00899638
0.00914783
0.00931368
0.0094906
0.00967444
0.00986044
0.0100434
0.0102182
0.0103798
0.0105236
0.0106453
0.0107415
0.0108097
0.010849
0.0108609
0.0108486
0.0108169
0.0107714
0.0107174
0.0106599
0.0106028
0.0105496
0.0105031
0.0104656
0.0104384
0.010422
0.0104158
0.0104187
0.0104293
0.0104462
0.010468
0.0104936
0.0105219
0.0105523
0.010585
0.010621
0.0106625
0.0107123
0.0107737
0.0108497
0.0109428
0.0110548
0.0111859
0.0113346
0.0114974
0.0116682
0.0118389
0.0120004
0.0121443
0.0122645
0.0123587
0.0124282
0.0124777
0.0125137
0.0125426
0.0125694
0.0125971
0.0126273
0.012661
0.0126998
0.0127456
0.0127996
0.0128629
0.0129359
0.0130175
0.013104
0.0131886
0.0132644
0.0133261
0.0133724
0.0134069
0.0134386
0.0134816
0.0135513
0.0136586
0.0138044
0.0139781
0.014159
0.0143204
0.0144331
0.0144712
0.0144197
0.0142816
0.0140774
0.0138361
0.0135845
0.013344
0.013135
0.0129799
0.0128977
0.0128937
0.0129559
0.0130662
0.0132188
0.013426
0.0137011
0.0140331
0.0143822
0.014707
0.0149995
0.0152952
0.0156396
0.0160363
0.0164227
0.0167071
0.0168496
0.0169191
0.017066
0.0174157
0.0179533
0.0184996
0.0188258
0.0188575
0.0188046
0.0191003
0.0201353
0.0219606
0.0240802
0.0255844
0.0257154
0.0245523
0.0229335
0.0219841
0.0219841
0.04
0.0230656
0.0243696
0.0219107
0.0150602
0.0146414
0.0178716
0.0186204
0.0171219
0.0166681
0.0169375
0.0169124
0.0166868
0.0167495
0.0167143
0.0165742
0.016526
0.0165956
0.0165492
0.0164658
0.0164178
0.0163604
0.0162242
0.0160878
0.0159627
0.015817
0.0156517
0.0155079
0.0153762
0.0152329
0.0151032
0.0149826
0.0148789
0.0147569
0.0146697
0.0145633
0.0144952
0.0143897
0.0143462
0.0142519
0.0142269
0.0141393
0.0141369
0.0140599
0.0140719
0.0140071
0.014033
0.0139805
0.014011
0.0139701
0.0140012
0.0139686
0.0139943
0.0139703
0.0139917
0.0139755
0.0139943
0.0139899
0.0140108
0.0140173
0.0140439
0.0140641
0.0140965
0.0141268
0.0141675
0.0142069
0.0142512
0.0142975
0.0143477
0.0143966
0.014448
0.0145013
0.0145539
0.0146049
0.0146584
0.0147118
0.014762
0.0148117
0.0148625
0.0149093
0.0149519
0.0149943
0.0150359
0.0150729
0.0151087
0.0151467
0.0151842
0.0152192
0.0152556
0.0152935
0.0153298
0.015364
0.015399
0.0154325
0.0154625
0.0154892
0.0155131
0.0155318
0.0155453
0.0155538
0.0155573
0.0155557
0.0155506
0.0155411
0.0155285
0.015514
0.0154973
0.0154788
0.0154615
0.0154449
0.0154285
0.0154148
0.0154037
0.0153906
0.0153754
0.015358
0.015333
0.0152975
0.015255
0.0152042
0.015143
0.0150761
0.0150081
0.0149372
0.0148661
0.0147999
0.0147388
0.0146809
0.0146293
0.0145856
0.014547
0.014513
0.0144857
0.0144642
0.014446
0.0144319
0.0144232
0.0144181
0.014415
0.0144152
0.0144188
0.0144236
0.0144293
0.0144375
0.0144475
0.0144576
0.014469
0.0144834
0.0144991
0.0145151
0.0145335
0.0145547
0.0145775
0.0146029
0.0146327
0.0146661
0.0147014
0.0147388
0.0147785
0.0148191
0.0148608
0.0149047
0.0149517
0.0150015
0.0150537
0.0151074
0.015161
0.0152125
0.0152612
0.0153071
0.0153506
0.0153926
0.0154354
0.0154808
0.0155297
0.015581
0.0156316
0.0156767
0.0157113
0.0157324
0.0157386
0.0157298
0.0157064
0.0156696
0.0156219
0.0155676
0.015513
0.0154641
0.0154245
0.0153948
0.0153735
0.0153593
0.0153526
0.0153558
0.0153709
0.0153976
0.0154326
0.0154708
0.0155091
0.0155484
0.0155943
0.0156542
0.0157326
0.0158281
0.015933
0.0160362
0.0161282
0.0162059
0.016274
0.0163438
0.0164279
0.0165351
0.0166668
0.0168152
0.0169656
0.0170997
0.0172005
0.0172561
0.0172623
0.0172222
0.0171452
0.0170442
0.0169328
0.0168229
0.0167237
0.016641
0.0165778
0.0165348
0.0165115
0.0165064
0.0165177
0.016543
0.0165795
0.0166239
0.0166725
0.0167212
0.0167662
0.0168036
0.0168305
0.0168446
0.0168442
0.0168289
0.0167987
0.0167546
0.0166981
0.0166315
0.0165575
0.0164791
0.0163992
0.0163207
0.0162458
0.0161763
0.0161134
0.0160577
0.0160099
0.0159703
0.0159395
0.015918
0.0159065
0.0159057
0.015916
0.0159376
0.0159703
0.0160129
0.0160639
0.0161214
0.0161833
0.0162484
0.0163161
0.0163874
0.0164646
0.0165506
0.0166488
0.0167618
0.0168916
0.0170384
0.0172015
0.0173789
0.0175678
0.0177645
0.0179648
0.0181637
0.0183562
0.0185373
0.0187024
0.0188473
0.0189684
0.0190625
0.0191279
0.0191641
0.0191731
0.0191585
0.0191256
0.01908
0.0190272
0.0189722
0.0189189
0.018871
0.0188312
0.0188017
0.0187838
0.0187778
0.0187832
0.0187986
0.0188226
0.0188536
0.0188902
0.0189314
0.0189761
0.0190241
0.0190756
0.0191315
0.0191938
0.0192648
0.0193477
0.0194454
0.0195605
0.0196942
0.0198464
0.0200149
0.0201948
0.0203791
0.0205594
0.0207268
0.0208734
0.0209942
0.0210873
0.0211545
0.0212005
0.0212314
0.0212537
0.0212728
0.0212924
0.0213149
0.021342
0.0213753
0.021416
0.0214648
0.0215215
0.0215855
0.0216552
0.0217268
0.0217945
0.0218526
0.0218972
0.0219283
0.02195
0.0219705
0.0220015
0.0220558
0.0221414
0.0222574
0.0223926
0.0225276
0.0226387
0.0227007
0.0226908
0.0225957
0.0224185
0.022179
0.0219058
0.0216254
0.0213588
0.021126
0.0209482
0.0208439
0.0208183
0.0208602
0.0209527
0.0210893
0.0212787
0.0215302
0.0218311
0.0221432
0.0224264
0.0226729
0.0229154
0.0231963
0.0235174
0.0238166
0.0240051
0.0240454
0.0240069
0.0240367
0.0242543
0.0246412
0.0250204
0.0251705
0.025023
0.0247925
0.02491
0.0257662
0.0274044
0.029334
0.0306694
0.0306212
0.0292292
0.0274741
0.0264869
0.0264869
0.04
0.0241479
0.0221162
0.0191403
0.0202588
0.0224025
0.0214316
0.0199019
0.0202504
0.0208985
0.0204678
0.020002
0.0200244
0.0200653
0.019868
0.0198113
0.0198516
0.0198335
0.0197823
0.0198245
0.0198382
0.0197854
0.0197193
0.0196732
0.0195831
0.0194699
0.019369
0.0192769
0.0191707
0.0190699
0.0189908
0.0189078
0.0188331
0.0187563
0.0187088
0.0186365
0.018603
0.0185395
0.0185333
0.0184709
0.0184881
0.0184334
0.0184753
0.0184234
0.0184872
0.0184434
0.018522
0.0184838
0.0185698
0.0185391
0.0186238
0.0185998
0.0186791
0.0186654
0.0187374
0.0187352
0.0188026
0.0188152
0.0188791
0.0189058
0.0189715
0.0190122
0.0190787
0.0191325
0.0192041
0.0192665
0.0193412
0.0194136
0.0194918
0.0195675
0.0196491
0.0197294
0.0198094
0.0198897
0.0199721
0.0200512
0.0201295
0.0202091
0.0202868
0.02036
0.0204331
0.0205057
0.0205743
0.0206403
0.0207082
0.0207755
0.02084
0.0209046
0.020971
0.0210353
0.0210968
0.0211574
0.0212171
0.0212716
0.0213209
0.0213664
0.0214069
0.0214389
0.0214644
0.0214845
0.0214972
0.0215015
0.021501
0.0214952
0.0214825
0.0214653
0.0214467
0.0214241
0.0213986
0.0213742
0.0213501
0.0213235
0.0212976
0.0212722
0.0212419
0.0212057
0.0211653
0.0211161
0.0210555
0.0209874
0.0209128
0.0208297
0.0207425
0.0206554
0.0205683
0.0204821
0.020401
0.0203256
0.0202544
0.0201889
0.0201308
0.0200784
0.0200309
0.0199895
0.0199542
0.0199231
0.0198959
0.0198737
0.0198556
0.0198399
0.0198273
0.0198185
0.0198121
0.0198069
0.0198042
0.0198042
0.0198053
0.0198079
0.0198137
0.0198221
0.0198319
0.0198446
0.019861
0.0198801
0.0199015
0.0199261
0.0199536
0.0199825
0.0200133
0.0200466
0.0200826
0.0201213
0.0201631
0.0202083
0.0202556
0.0203037
0.0203512
0.020397
0.0204402
0.0204806
0.0205192
0.0205571
0.0205958
0.0206369
0.0206812
0.0207276
0.0207732
0.0208138
0.0208453
0.0208645
0.0208698
0.0208613
0.0208394
0.020805
0.0207605
0.0207099
0.0206582
0.0206107
0.020571
0.02054
0.0205169
0.0205007
0.0204917
0.0204913
0.0205011
0.0205206
0.020547
0.0205767
0.0206074
0.0206405
0.0206811
0.0207351
0.0208063
0.0208929
0.0209876
0.0210804
0.021163
0.0212328
0.0212943
0.0213578
0.0214349
0.021534
0.0216564
0.0217951
0.0219365
0.0220636
0.02216
0.0222141
0.0222214
0.0221842
0.0221112
0.0220146
0.0219073
0.0218009
0.0217045
0.0216235
0.0215608
0.0215167
0.0214902
0.0214795
0.0214825
0.0214969
0.0215205
0.0215505
0.0215842
0.0216183
0.0216497
0.0216753
0.0216921
0.0216981
0.0216918
0.0216729
0.0216415
0.021599
0.0215467
0.0214867
0.0214211
0.0213523
0.0212822
0.0212128
0.021146
0.021083
0.0210251
0.0209734
0.0209285
0.0208909
0.020861
0.0208388
0.0208245
0.020818
0.0208193
0.0208284
0.0208453
0.0208698
0.0209014
0.0209395
0.0209836
0.0210334
0.0210892
0.0211517
0.0212225
0.0213032
0.0213953
0.0215001
0.0216181
0.0217489
0.0218917
0.0220448
0.0222058
0.0223721
0.0225402
0.0227063
0.0228666
0.023017
0.023154
0.0232741
0.0233739
0.0234506
0.0235023
0.0235284
0.0235302
0.0235107
0.0234739
0.0234243
0.0233664
0.0233044
0.0232421
0.0231833
0.0231309
0.0230875
0.0230545
0.023032
0.0230194
0.0230154
0.0230187
0.0230278
0.0230415
0.023059
0.0230798
0.0231036
0.0231307
0.0231619
0.0231986
0.0232429
0.0232976
0.0233658
0.0234499
0.0235516
0.0236704
0.0238038
0.0239468
0.0240928
0.0242341
0.0243632
0.0244736
0.0245607
0.0246227
0.0246601
0.0246759
0.0246746
0.0246617
0.0246429
0.0246231
0.0246059
0.024594
0.0245892
0.0245921
0.024602
0.0246173
0.024636
0.0246559
0.0246744
0.0246881
0.0246942
0.024692
0.024683
0.0246705
0.0246595
0.0246565
0.0246686
0.0247003
0.0247494
0.0248062
0.0248569
0.0248853
0.024874
0.0248061
0.0246696
0.0244643
0.0242035
0.0239089
0.0236019
0.0233002
0.0230211
0.022785
0.0226108
0.0225064
0.0224646
0.022472
0.0225225
0.0226219
0.0227768
0.0229771
0.023191
0.0233828
0.0235425
0.0236966
0.0238831
0.024105
0.0243079
0.0244121
0.0243829
0.0242806
0.024238
0.024365
0.0246483
0.0249306
0.0250138
0.0248355
0.0245892
0.0246765
0.0254706
0.0270113
0.0288247
0.0300796
0.0300457
0.0287132
0.0270219
0.0260826
0.0260826
0.04
0.0260079
0.0273139
0.0272131
0.0267949
0.0241439
0.0226105
0.0236773
0.0243842
0.0233055
0.0225215
0.0228304
0.0229341
0.0225215
0.0222925
0.0223802
0.0223077
0.0221814
0.0221962
0.022268
0.0222295
0.0222142
0.0222398
0.0222293
0.0221574
0.0221121
0.0220725
0.0220071
0.0219348
0.0218893
0.0218444
0.0217874
0.0217457
0.0217098
0.021682
0.021639
0.021632
0.0216013
0.0216111
0.0215794
0.0216195
0.0215905
0.0216531
0.0216249
0.0217155
0.0216854
0.0217931
0.0217623
0.0218806
0.0218477
0.0219666
0.0219373
0.0220521
0.0220309
0.0221384
0.022131
0.0222318
0.0222402
0.0223335
0.0223592
0.022448
0.0224879
0.0225737
0.0226291
0.0227141
0.0227803
0.0228685
0.0229455
0.0230342
0.0231188
0.0232112
0.0232984
0.0233899
0.0234809
0.0235716
0.0236598
0.0237507
0.02384
0.0239261
0.0240121
0.0240992
0.0241821
0.0242629
0.024346
0.0244291
0.0245088
0.0245896
0.0246731
0.0247546
0.0248329
0.0249124
0.0249908
0.0250639
0.0251321
0.0251969
0.0252549
0.0253048
0.0253479
0.0253842
0.0254119
0.0254322
0.0254448
0.0254492
0.0254463
0.0254377
0.0254224
0.0254027
0.0253805
0.0253548
0.0253261
0.0252975
0.0252669
0.0252325
0.0251967
0.025158
0.0251112
0.0250575
0.0249975
0.0249269
0.0248452
0.0247574
0.0246631
0.0245616
0.0244581
0.0243559
0.0242539
0.0241536
0.0240587
0.023969
0.0238832
0.0238029
0.0237295
0.0236619
0.0235992
0.0235423
0.0234915
0.0234451
0.0234022
0.0233641
0.0233307
0.0233
0.0232723
0.0232493
0.0232293
0.0232105
0.0231943
0.0231815
0.0231702
0.0231606
0.0231555
0.0231542
0.023155
0.0231591
0.0231672
0.0231775
0.0231892
0.0232031
0.0232198
0.0232387
0.0232603
0.0232861
0.0233166
0.0233504
0.0233869
0.0234256
0.0234647
0.0235025
0.0235382
0.023572
0.0236037
0.0236335
0.0236631
0.0236936
0.0237257
0.0237599
0.0237956
0.0238301
0.0238599
0.0238813
0.0238916
0.0238889
0.0238733
0.0238455
0.0238068
0.0237588
0.0237049
0.0236492
0.0235962
0.0235491
0.0235099
0.0234785
0.0234541
0.0234366
0.0234266
0.0234249
0.0234309
0.0234432
0.0234592
0.0234781
0.0235015
0.0235335
0.0235788
0.0236399
0.0237146
0.0237964
0.0238768
0.0239486
0.0240098
0.0240645
0.0241216
0.0241914
0.0242815
0.024393
0.0245197
0.024649
0.024765
0.0248522
0.0248993
0.0249012
0.0248599
0.0247833
0.0246827
0.0245708
0.0244589
0.0243558
0.0242671
0.0241954
0.0241409
0.0241022
0.0240772
0.0240636
0.024059
0.0240615
0.024069
0.0240794
0.0240902
0.024099
0.0241029
0.0240995
0.0240867
0.0240633
0.0240291
0.0239847
0.0239316
0.0238715
0.0238064
0.0237381
0.023668
0.0235976
0.0235278
0.0234599
0.0233947
0.0233335
0.0232773
0.0232271
0.0231833
0.0231461
0.0231152
0.0230902
0.0230705
0.0230555
0.023045
0.0230394
0.023039
0.0230447
0.0230573
0.0230778
0.0231071
0.0231462
0.023196
0.023257
0.0233296
0.0234135
0.0235081
0.0236125
0.0237255
0.023846
0.0239725
0.024103
0.0242357
0.0243678
0.0244968
0.0246198
0.0247343
0.0248375
0.0249267
0.024999
0.0250518
0.0250832
0.0250924
0.0250805
0.0250496
0.0250027
0.0249432
0.0248744
0.0247998
0.0247232
0.0246482
0.0245786
0.0245167
0.0244643
0.0244213
0.0243871
0.0243603
0.0243396
0.024324
0.0243126
0.024305
0.0243012
0.0243011
0.0243049
0.0243133
0.0243273
0.0243487
0.0243803
0.024425
0.0244853
0.0245627
0.0246565
0.0247636
0.0248788
0.0249958
0.0251079
0.0252088
0.0252932
0.0253571
0.0253981
0.025416
0.0254121
0.0253896
0.0253533
0.0253092
0.0252631
0.02522
0.0251837
0.0251562
0.0251377
0.0251261
0.0251181
0.0251099
0.0250989
0.0250834
0.0250631
0.0250388
0.0250133
0.0249896
0.02497
0.0249555
0.0249464
0.024944
0.0249483
0.0249559
0.0249595
0.0249503
0.0249201
0.0248604
0.0247613
0.0246141
0.0244163
0.0241749
0.0239029
0.0236136
0.0233195
0.0230371
0.0227889
0.0225975
0.0224734
0.02241
0.0223928
0.0224143
0.0224817
0.0226068
0.0227856
0.0229889
0.0231762
0.023328
0.0234647
0.0236284
0.0238356
0.0240444
0.024175
0.0241781
0.0240949
0.0240477
0.0241545
0.0244253
0.024726
0.0248624
0.0247514
0.024552
0.0246434
0.0254139
0.0269525
0.0288038
0.0300854
0.0300674
0.0287837
0.027152
0.026228
0.026228
0.04
0.0268086
0.0279444
0.0266302
0.0258693
0.0259202
0.0269012
0.0262442
0.0248194
0.0247297
0.0254193
0.0251394
0.0244021
0.0242923
0.0244281
0.024215
0.0239327
0.0239262
0.023927
0.0238374
0.0238061
0.0238721
0.0238723
0.0238425
0.0238468
0.0238582
0.0238187
0.0237851
0.0237741
0.0237562
0.0237212
0.0237017
0.0236923
0.0236703
0.0236539
0.0236424
0.0236468
0.0236304
0.0236496
0.0236427
0.0236849
0.0236721
0.0237427
0.0237299
0.0238247
0.0238026
0.0239209
0.0238895
0.024019
0.0239789
0.0241145
0.0240715
0.0242055
0.0241687
0.024298
0.0242748
0.0243961
0.0243897
0.0245016
0.0245137
0.024615
0.0246435
0.0247384
0.0247824
0.0248715
0.0249304
0.0250197
0.0250891
0.0251791
0.0252594
0.0253499
0.0254345
0.0255271
0.025615
0.0257051
0.0257951
0.0258866
0.0259744
0.026064
0.0261544
0.0262421
0.0263279
0.0264169
0.0265053
0.0265912
0.0266787
0.0267697
0.0268588
0.0269463
0.0270352
0.0271247
0.0272095
0.0272902
0.0273679
0.0274406
0.0275042
0.0275599
0.0276099
0.0276522
0.027684
0.0277084
0.0277261
0.027734
0.0277322
0.0277256
0.0277127
0.0276921
0.0276683
0.0276436
0.027613
0.0275786
0.0275445
0.0275067
0.0274615
0.0274137
0.0273618
0.0272993
0.0272277
0.0271504
0.0270627
0.0269641
0.0268603
0.0267524
0.0266386
0.0265233
0.0264101
0.0262983
0.0261876
0.0260814
0.0259806
0.0258837
0.0257912
0.0257055
0.0256259
0.0255509
0.0254811
0.0254174
0.0253584
0.0253027
0.0252517
0.0252061
0.0251638
0.0251244
0.0250897
0.0250586
0.0250286
0.025001
0.0249773
0.0249562
0.0249374
0.0249236
0.0249145
0.0249079
0.0249036
0.0249025
0.0249032
0.0249046
0.024908
0.0249152
0.0249266
0.0249423
0.0249629
0.0249884
0.0250165
0.0250454
0.0250742
0.0251021
0.0251276
0.0251508
0.0251726
0.0251937
0.0252146
0.0252362
0.0252592
0.0252829
0.0253063
0.0253281
0.0253456
0.0253557
0.0253561
0.0253454
0.025323
0.0252896
0.0252466
0.0251961
0.0251404
0.0250825
0.025026
0.0249737
0.0249276
0.0248884
0.0248561
0.0248305
0.0248113
0.0247984
0.0247914
0.0247893
0.0247914
0.024798
0.0248113
0.0248345
0.024871
0.0249216
0.0249838
0.0250515
0.0251177
0.0251769
0.0252278
0.0252744
0.0253246
0.0253871
0.0254681
0.0255684
0.025682
0.0257973
0.0259
0.0259756
0.0260137
0.0260093
0.0259639
0.0258843
0.025781
0.0256654
0.0255484
0.0254382
0.0253405
0.0252579
0.025191
0.0251384
0.0250982
0.025068
0.0250455
0.0250288
0.0250161
0.0250055
0.0249953
0.0249833
0.0249675
0.0249456
0.024916
0.0248779
0.0248311
0.0247768
0.0247164
0.0246519
0.0245852
0.0245179
0.0244509
0.0243849
0.0243202
0.0242573
0.0241965
0.0241387
0.0240846
0.0240351
0.0239906
0.0239513
0.0239167
0.0238862
0.0238588
0.0238338
0.0238109
0.0237904
0.0237736
0.023762
0.0237575
0.0237624
0.0237784
0.0238072
0.0238495
0.0239053
0.0239736
0.0240528
0.0241407
0.0242351
0.024334
0.0244358
0.0245391
0.0246426
0.0247451
0.0248451
0.0249411
0.0250314
0.0251146
0.0251888
0.0252522
0.0253025
0.0253375
0.0253554
0.0253557
0.0253388
0.025306
0.0252592
0.0252006
0.0251325
0.0250579
0.0249802
0.0249032
0.0248305
0.0247647
0.0247069
0.0246573
0.024615
0.0245791
0.0245486
0.0245228
0.0245012
0.0244836
0.0244699
0.0244604
0.0244555
0.0244559
0.0244627
0.0244775
0.0245026
0.0245402
0.0245928
0.0246614
0.0247452
0.0248413
0.0249445
0.0250489
0.0251483
0.0252375
0.0253121
0.0253687
0.0254051
0.02542
0.0254138
0.0253883
0.0253479
0.0252986
0.0252472
0.0251997
0.0251604
0.0251308
0.0251101
0.0250952
0.0250819
0.0250659
0.0250448
0.0250182
0.0249876
0.0249565
0.0249299
0.0249125
0.0249065
0.0249098
0.0249173
0.0249231
0.0249215
0.0249068
0.0248741
0.0248219
0.0247519
0.0246653
0.0245587
0.0244245
0.0242567
0.0240566
0.0238317
0.0235909
0.0233422
0.0230956
0.0228678
0.0226798
0.0225469
0.0224722
0.0224486
0.0224687
0.0225329
0.0226455
0.0228028
0.0229842
0.0231597
0.0233133
0.023459
0.023627
0.0238269
0.0240211
0.0241437
0.0241572
0.0241017
0.0240836
0.0242008
0.0244553
0.0247263
0.0248458
0.0247519
0.0246065
0.024762
0.0255603
0.027067
0.028859
0.0300969
0.030081
0.0288412
0.027223
0.0262846
0.0262846
0.04
0.0248051
0.0253493
0.0265921
0.0273615
0.0272074
0.0268379
0.0261916
0.0265242
0.0268981
0.0263697
0.0257045
0.0258369
0.026001
0.0256154
0.0252311
0.0252182
0.0251913
0.02497
0.0248555
0.0248861
0.0248786
0.0248228
0.0248432
0.0248792
0.0248661
0.0248462
0.0248645
0.0248682
0.0248505
0.0248449
0.0248535
0.024846
0.0248332
0.0248356
0.0248363
0.0248373
0.0248345
0.0248588
0.024859
0.0248958
0.0248962
0.0249631
0.0249549
0.0250456
0.0250283
0.0251426
0.0251067
0.0252368
0.0251879
0.0253264
0.0252696
0.0254121
0.0253592
0.0254996
0.0254598
0.0255931
0.0255709
0.0256936
0.0256897
0.0257983
0.0258131
0.0259105
0.0259402
0.0260296
0.0260762
0.0261609
0.0262199
0.0263061
0.026376
0.0264613
0.02654
0.0266273
0.026709
0.0267977
0.0268848
0.0269726
0.0270605
0.0271522
0.0272408
0.0273288
0.0274196
0.027511
0.0275986
0.0276884
0.0277822
0.0278743
0.027964
0.0280579
0.0281528
0.0282432
0.0283309
0.028419
0.0285011
0.0285741
0.0286412
0.0287026
0.0287539
0.0287968
0.0288331
0.0288604
0.0288773
0.0288868
0.0288875
0.0288787
0.0288641
0.0288453
0.0288196
0.0287903
0.0287593
0.028723
0.0286812
0.0286381
0.0285894
0.028533
0.0284725
0.0284063
0.0283291
0.0282441
0.0281529
0.0280519
0.0279421
0.0278289
0.0277118
0.0275905
0.0274689
0.0273493
0.0272305
0.0271134
0.0270003
0.0268919
0.0267875
0.0266878
0.0265943
0.026507
0.0264244
0.0263466
0.0262748
0.0262081
0.0261449
0.0260868
0.0260344
0.0259855
0.0259395
0.025898
0.0258598
0.0258226
0.0257882
0.0257585
0.0257323
0.0257092
0.0256911
0.0256775
0.0256654
0.0256544
0.0256456
0.0256385
0.0256329
0.0256307
0.0256342
0.0256437
0.025658
0.0256765
0.0256981
0.0257201
0.0257408
0.0257603
0.0257786
0.0257951
0.0258104
0.0258258
0.0258417
0.0258578
0.025874
0.0258898
0.0259042
0.0259158
0.0259236
0.0259253
0.0259186
0.0259024
0.0258762
0.0258409
0.0257977
0.0257484
0.0256945
0.0256378
0.0255806
0.0255257
0.0254756
0.0254317
0.0253944
0.025363
0.0253366
0.0253143
0.025296
0.0252819
0.0252728
0.0252704
0.0252767
0.0252941
0.025324
0.025366
0.0254176
0.0254737
0.0255291
0.0255797
0.0256248
0.0256677
0.0257147
0.0257731
0.0258479
0.0259395
0.0260431
0.0261484
0.0262423
0.026312
0.0263472
0.0263427
0.0262993
0.0262225
0.0261213
0.0260062
0.0258871
0.0257722
0.0256671
0.0255752
0.0254973
0.0254329
0.0253801
0.0253369
0.0253011
0.0252706
0.0252437
0.0252189
0.0251948
0.0251696
0.0251416
0.0251091
0.0250707
0.0250257
0.0249741
0.024917
0.0248561
0.0247934
0.0247306
0.0246692
0.0246099
0.0245529
0.0244982
0.0244453
0.0243944
0.0243455
0.0242991
0.0242557
0.0242157
0.0241792
0.0241458
0.024115
0.0240859
0.0240579
0.0240306
0.0240047
0.0239814
0.0239629
0.0239518
0.023951
0.0239629
0.0239894
0.0240312
0.0240875
0.0241561
0.0242342
0.0243184
0.0244056
0.0244935
0.0245803
0.0246648
0.0247464
0.0248245
0.0248988
0.0249689
0.0250343
0.0250945
0.0251486
0.0251953
0.0252327
0.0252588
0.0252721
0.0252721
0.0252588
0.025233
0.0251953
0.0251466
0.0250881
0.0250221
0.0249518
0.0248813
0.0248145
0.0247539
0.0247004
0.0246537
0.0246126
0.0245763
0.0245443
0.0245164
0.0244928
0.0244735
0.0244586
0.0244481
0.0244423
0.0244421
0.0244487
0.0244642
0.0244903
0.0245291
0.0245819
0.0246491
0.0247294
0.0248197
0.024916
0.0250135
0.0251073
0.0251932
0.0252669
0.0253248
0.0253641
0.0253827
0.0253803
0.0253586
0.0253215
0.0252751
0.0252261
0.025181
0.0251439
0.0251166
0.0250977
0.0250837
0.0250693
0.02505
0.0250231
0.0249895
0.0249535
0.0249216
0.024901
0.0248969
0.024909
0.0249312
0.0249533
0.0249643
0.0249547
0.024918
0.0248513
0.0247584
0.0246488
0.0245333
0.0244168
0.0242962
0.0241635
0.0240126
0.0238416
0.023651
0.0234432
0.0232254
0.0230139
0.0228308
0.0226942
0.0226093
0.0225692
0.0225664
0.0226028
0.0226877
0.0228231
0.0229906
0.0231573
0.0233
0.0234267
0.0235693
0.0237478
0.0239377
0.0240771
0.0241179
0.0240797
0.0240539
0.024141
0.0243638
0.0246285
0.0247798
0.0247388
0.0246353
0.0248032
0.0255838
0.0270445
0.0287901
0.0300172
0.0300171
0.0288061
0.0272205
0.0262843
0.0262843
0.04
0.024866
0.0256347
0.0261373
0.0263368
0.0264002
0.0265901
0.0270275
0.0273272
0.0267099
0.0264246
0.0268498
0.026948
0.026375
0.0261057
0.0262527
0.026144
0.0257652
0.0256145
0.0256423
0.0255382
0.0254054
0.0254128
0.0254495
0.0254096
0.0253929
0.0254287
0.0254405
0.0254202
0.0254303
0.0254522
0.0254487
0.0254397
0.0254503
0.0254574
0.0254508
0.0254568
0.0254675
0.0254842
0.0254848
0.0255225
0.0255285
0.0255838
0.0255785
0.0256642
0.025645
0.0257491
0.0257106
0.0258359
0.025778
0.0259146
0.0258489
0.0259935
0.0259287
0.0260749
0.0260229
0.0261629
0.0261291
0.0262574
0.0262415
0.0263549
0.026358
0.0264552
0.0264745
0.0265623
0.0265966
0.0266769
0.0267268
0.0268062
0.0268664
0.0269473
0.0270185
0.0271002
0.0271789
0.0272657
0.0273491
0.027438
0.0275288
0.02762
0.0277099
0.0278044
0.027898
0.0279885
0.0280807
0.0281767
0.0282695
0.0283612
0.0284568
0.0285539
0.028647
0.0287395
0.0288328
0.0289225
0.0290042
0.0290803
0.0291507
0.0292131
0.0292651
0.0293095
0.0293473
0.0293757
0.0293924
0.0294012
0.0294022
0.0293927
0.029375
0.0293547
0.0293284
0.0292946
0.0292591
0.0292215
0.0291746
0.0291227
0.0290701
0.0290096
0.0289394
0.0288669
0.0287887
0.0286985
0.0286012
0.0285003
0.0283904
0.0282728
0.0281535
0.0280323
0.0279073
0.0277819
0.0276592
0.0275378
0.0274173
0.0273007
0.0271893
0.0270822
0.0269792
0.0268827
0.0267928
0.0267075
0.0266268
0.0265526
0.0264842
0.0264193
0.0263592
0.0263051
0.0262544
0.0262058
0.0261615
0.026121
0.0260817
0.0260455
0.0260149
0.0259887
0.025965
0.0259452
0.0259289
0.0259134
0.0258981
0.025885
0.0258752
0.0258688
0.0258673
0.0258728
0.0258845
0.0258996
0.0259163
0.0259339
0.0259507
0.0259654
0.0259791
0.0259927
0.026006
0.0260196
0.0260342
0.0260491
0.0260627
0.0260739
0.0260822
0.026087
0.0260876
0.0260834
0.0260728
0.026054
0.0260268
0.0259923
0.0259517
0.0259063
0.0258572
0.025805
0.0257509
0.025697
0.025646
0.0256001
0.0255602
0.0255254
0.0254945
0.0254661
0.0254401
0.0254179
0.0254018
0.0253945
0.0253978
0.0254131
0.0254402
0.0254775
0.0255222
0.0255706
0.0256189
0.0256648
0.0257081
0.0257516
0.0258001
0.0258591
0.0259324
0.02602
0.0261174
0.0262159
0.0263038
0.0263695
0.0264035
0.0264007
0.0263609
0.0262885
0.0261912
0.0260781
0.0259584
0.02584
0.025729
0.0256292
0.0255425
0.025469
0.0254075
0.0253558
0.0253117
0.0252729
0.0252375
0.0252041
0.0251715
0.0251384
0.0251039
0.0250666
0.0250255
0.0249799
0.0249299
0.0248761
0.0248198
0.0247627
0.0247067
0.024653
0.0246024
0.0245552
0.024511
0.0244694
0.0244298
0.0243919
0.0243554
0.0243204
0.0242871
0.0242557
0.0242262
0.0241983
0.0241718
0.0241463
0.0241219
0.0240991
0.024079
0.0240636
0.0240555
0.0240574
0.024072
0.024101
0.0241448
0.0242022
0.0242706
0.0243462
0.0244252
0.0245041
0.0245804
0.0246525
0.0247197
0.0247819
0.0248392
0.0248922
0.024941
0.0249862
0.0250279
0.0250659
0.0250991
0.0251263
0.0251458
0.0251563
0.025157
0.0251481
0.0251294
0.0251009
0.0250625
0.0250146
0.024959
0.0248987
0.0248378
0.02478
0.0247277
0.0246814
0.0246405
0.0246036
0.02457
0.0245396
0.0245128
0.0244899
0.0244713
0.0244568
0.0244466
0.0244411
0.0244417
0.0244501
0.0244682
0.0244975
0.0245391
0.0245933
0.0246596
0.0247366
0.0248218
0.0249121
0.0250041
0.0250938
0.025177
0.0252498
0.025308
0.0253484
0.0253688
0.0253687
0.02535
0.0253166
0.0252742
0.0252295
0.0251881
0.0251537
0.0251271
0.0251069
0.0250895
0.0250707
0.0250464
0.025015
0.0249779
0.0249405
0.0249105
0.024896
0.0249017
0.0249263
0.0249608
0.0249911
0.0250017
0.0249801
0.0249192
0.024819
0.024688
0.024542
0.0243988
0.0242703
0.0241578
0.0240531
0.0239455
0.0238258
0.0236876
0.0235273
0.0233468
0.0231584
0.0229838
0.0228442
0.0227491
0.0226944
0.0226727
0.022686
0.0227449
0.0228552
0.0230021
0.0231539
0.0232851
0.0233997
0.0235269
0.0236898
0.0238718
0.0240178
0.0240781
0.0240603
0.0240418
0.0241196
0.0243248
0.0245777
0.0247373
0.0247305
0.0246724
0.0248741
0.0256694
0.0271197
0.0288273
0.0300109
0.0299825
0.0287752
0.0272207
0.0263023
0.0263023
0.04
0.0255121
0.0261026
0.0258094
0.0261907
0.0265912
0.0267721
0.0268017
0.0267405
0.0268297
0.0272156
0.027098
0.0266916
0.0266781
0.0268936
0.026678
0.026296
0.0262116
0.0262255
0.0260254
0.0258222
0.0258067
0.0258061
0.0257227
0.0256819
0.0257152
0.0257169
0.0256905
0.0257006
0.0257272
0.0257223
0.0257161
0.0257306
0.02574
0.0257338
0.0257373
0.0257529
0.0257575
0.0257687
0.0257788
0.025813
0.0258139
0.0258644
0.0258627
0.0259374
0.0259133
0.0260118
0.0259697
0.0260861
0.0260231
0.0261579
0.0260851
0.0262289
0.0261587
0.0263071
0.0262479
0.026392
0.0263515
0.0264822
0.0264605
0.026576
0.026571
0.0266682
0.0266812
0.026765
0.0267906
0.0268677
0.0269092
0.0269817
0.0270357
0.0271118
0.0271765
0.0272559
0.027333
0.0274181
0.027503
0.0275964
0.027689
0.027784
0.0278823
0.0279822
0.0280776
0.0281748
0.0282746
0.028371
0.028464
0.0285619
0.028661
0.0287552
0.0288491
0.0289478
0.0290425
0.0291294
0.0292137
0.0292953
0.0293655
0.029426
0.0294818
0.0295299
0.0295656
0.0295936
0.0296138
0.0296215
0.0296183
0.0296097
0.0295918
0.0295649
0.0295358
0.0295028