# vtk DataFile Version 3.0
LBM output step 540
ASCII
DATASET STRUCTURED_POINTS
DIMENSIONS 400 100 1
ORIGIN 0 0 0
SPACING 1 1 1
POINT_DATA 40000
SCALARS velocity_magnitude double 1
LOOKUP_TABLE default
0
0
0
0
0
0
0
0
0
0
0
0
0
0
0
0
0
0
0
0
0
0
0
0
0
0
0
0
0
0
0
0
0
0
0
0
0
0
0
0
0
0
0
0
0
0
0
0
0
0
0
0
0
0
0
0
0
0
0
0
0
0
0
0
0
0
0
0
0
0
0
0
0
0
0
0
0
0
0
0
0
0
0
0
0
0
0
0
0
0
0
0
0
0
0
0
0
0
0
0
0
0
0
0
0
0
0
0
0
0
0
0
0
0
0
0
0
0
0
0
0
0
0
0
0
0
0
0
0
0
0
0
0
0
0
0
0
0
0
0
0
0
0
0
0
0
0
0
0
0
0
0
0
0
0
0
0
0
0
0
0
0
0
0
0
0
0
0
0
0
0
0
0
0
0
0
0
0
0
0
0
0
0
0
0
0
0
0
0
0
0
0
0
0
0
0
0
0
0
0
0
0
0
0
0
0
0
0
0
0
0
0
0
0
0
0
0
0
0
0
0
0
0
0
0
0
0
0
0
0
0
0
0
0
0
0
0
0
0
0
0
0
0
0
0
0
0
0
0
0
0
0
0
0
0
0
0
0
0
0
0
0
0
0
0
0
0
0
0
0
0
0
0
0
0
0
0
0
0
0
0
0
0
0
0
0
0
0
0
0
0
0
0
0
0
0
0
0
0
0
0
0
0
0
0
0
0
0
0
0
0
0
0
0
0
0
0
0
0
0
0
0
0
0
0
0
0
0
0
0
0
0
0
0
0
0
0
0
0
0
0
0
0
0
0
0
0
0
0
0
0
0
0
0
0
0
0
0
0
0
0
0
0
0
0
0
0
0
0
0
0
0
0
0
0
0
0
0
0
0
0
0
0
0
0
0
0
0
0
0
0
0
0
0
0
0
0
0
0
0
0.04
0.0149806
0.0094546
0.01468
0.0170057
0.0165579
0.0135537
0.0130571
0.0131017
0.0131347
0.0127519
0.0127561
0.0125251
0.0124068
0.0123355
0.0123898
0.0122731
0.0121939
0.0121107
0.012037
0.011887
0.0117697
0.0116467
0.0115158
0.0113782
0.0112575
0.0111483
0.0110126
0.0109052
0.0107738
0.010674
0.0105297
0.0104394
0.0103051
0.0102215
0.0100911
0.0100134
0.0098855
0.00979521
0.00966306
0.00956222
0.00942995
0.00932557
0.00920829
0.00911559
0.00902036
0.00894634
0.008875
0.00881628
0.00876002
0.00871008
0.00866007
0.00861102
0.00856108
0.00851109
0.00846121
0.00841159
0.00836375
0.00831892
0.00827759
0.00824016
0.00820997
0.00818852
0.00817559
0.00817196
0.00817889
0.00819359
0.00821367
0.00824016
0.00827215
0.00830606
0.00834162
0.00837884
0.00841277
0.0084408
0.00846506
0.00848594
0.00850203
0.00851626
0.00853019
0.00854156
0.00854995
0.00856035
0.00857621
0.00859893
0.00862864
0.00866469
0.00870236
0.00873803
0.00877199
0.0088073
0.00884265
0.00887601
0.00890662
0.00893563
0.00896425
0.00899773
0.00903879
0.00908361
0.00912349
0.00915304
0.00917027
0.00917888
0.00918653
0.00920043
0.00921925
0.00923678
0.00924712
0.00924856
0.00924515
0.00924905
0.00927105
0.00931245
0.00936346
0.00940917
0.00943539
0.00943723
0.00942429
0.00941863
0.00944144
0.00950473
0.00960814
0.00973531
0.00985679
0.00994518
0.00998179
0.00995649
0.00987298
0.00974928
0.00960493
0.00945609
0.00931911
0.00920528
0.0091153
0.00904743
0.0090015
0.00897275
0.0089538
0.00894234
0.00893748
0.00893494
0.00893225
0.00893108
0.00893152
0.00893154
0.00893168
0.00893414
0.00893849
0.00894341
0.00895012
0.00895973
0.00897072
0.00898234
0.00899567
0.00901019
0.00902407
0.00903715
0.00904987
0.00906123
0.00907082
0.00908005
0.00908999
0.00910103
0.00911459
0.00913221
0.00915432
0.00918099
0.00921261
0.009249
0.00928933
0.00933318
0.00938059
0.00943092
0.0094834
0.00953787
0.00959389
0.00965041
0.00970692
0.00976357
0.00982032
0.00987685
0.00993275
0.00998732
0.0100394
0.010088
0.0101329
0.0101751
0.0102156
0.0102553
0.0102941
0.0103307
0.0103624
0.0103871
0.0104035
0.0104126
0.0104173
0.0104209
0.0104257
0.0104313
0.0104342
0.0104297
0.0104137
0.0103851
0.010347
0.0103054
0.0102673
0.0102377
0.0102182
0.0102069
0.0102005
0.0101957
0.0101917
0.0101903
0.0101947
0.0102083
0.0102331
0.0102696
0.0103166
0.0103726
0.0104368
0.0105089
0.0105896
0.0106799
0.0107806
0.0108924
0.0110153
0.011149
0.0112925
0.011444
0.0116008
0.0117596
0.0119165
0.0120664
0.0122036
0.0123208
0.0124103
0.0124638
0.0124738
0.0124351
0.0123466
0.0122119
0.0120401
0.0118442
0.0116403
0.0114445
0.01127
0.0111255
0.011014
0.0109343
0.0108827
0.0108557
0.0108517
0.0108706
0.0109134
0.0109832
0.0110852
0.0112238
0.0113981
0.0116021
0.011829
0.0120732
0.0123287
0.0125865
0.0128365
0.0130728
0.0132939
0.0134998
0.01369
0.0138659
0.0140306
0.0141864
0.0143338
0.0144747
0.0146154
0.0147626
0.014914
0.0150587
0.0151906
0.0153194
0.0154615
0.0156188
0.0157711
0.0158965
0.0159975
0.0161025
0.016237
0.0163934
0.016535
0.0166328
0.0167002
0.0167877
0.0169373
0.0171384
0.017338
0.0174961
0.0176303
0.0177969
0.0180145
0.018212
0.0182852
0.0182359
0.0182493
0.0185929
0.019378
0.0203586
0.020949
0.0205394
0.0189545
0.0166937
0.0147205
0.0139665
0.0148608
0.017025
0.0192385
0.0199458
0.0182557
0.0145997
0.0103031
0.00655881
0.00386344
0.00215307
0.0011537
0.000600631
0.000305717
0.00015268
7.49694e-05
3.62368e-05
1.72566e-05
8.10298e-06
3.75529e-06
1.72e-06
7.80021e-07
3.51146e-07
1.57438e-07
7.0583e-08
3.17773e-08
1.44194e-08
6.60746e-09
3.05439e-09
1.41492e-09
6.47705e-10
2.86072e-10
1.15899e-10
3.70397e-11
4.0052e-12
1.11196e-11
1.43845e-11
1.30345e-11
1.00777e-11
7.39421e-12
5.11593e-12
2.83295e-12
1.30155e-12
7.61927e-13
1.70878e-13
3.45575e-13
3.91424e-13
4.9016e-13
3.62884e-13
2.74268e-13
3.15927e-13
2.2809e-13
1.43774e-13
1.21519e-13
1.29811e-13
9.42731e-14
4.63554e-14
4.78923e-14
1.17376e-13
6.21662e-14
3.35405e-14
2.92829e-14
1.37163e-14
4.29942e-14
3.89937e-14
2.35106e-14
4.87171e-14
1.97712e-14
1.51141e-14
1.96746e-14
2.24478e-14
2.07924e-14
8.23025e-15
4.51804e-15
1.7711e-14
6.78793e-15
1.80108e-14
1.05781e-14
1.35015e-14
1.5871e-14
8.0856e-15
1.30468e-14
8.0284e-15
5.93813e-15
8.21719e-15
2.61015e-15
4.23026e-15
2.62503e-15
2.44662e-15
2.44662e-15
0.04
0.0236338
0.0246639
0.0221432
0.0152551
0.0148923
0.0181133
0.0187868
0.0171976
0.0166761
0.0169093
0.0168802
0.0166874
0.0168238
0.0168929
0.0168572
0.016891
0.0170095
0.0169856
0.0169036
0.0168504
0.0167941
0.0166789
0.0165693
0.0164969
0.016398
0.0163094
0.0162101
0.0161617
0.0160492
0.016003
0.0158972
0.0158788
0.0157664
0.0157651
0.0156678
0.0156748
0.015575
0.0155783
0.0154817
0.0154689
0.0153765
0.0153595
0.0152852
0.0152709
0.0152234
0.0152213
0.0151985
0.015205
0.0151992
0.0152097
0.0152106
0.0152179
0.0152202
0.0152256
0.0152265
0.0152303
0.015236
0.0152435
0.0152523
0.0152682
0.0152899
0.0153165
0.0153521
0.0153986
0.0154512
0.0155098
0.0155778
0.0156515
0.0157268
0.0158073
0.0158927
0.0159759
0.0160553
0.0161341
0.0162087
0.0162757
0.0163398
0.016405
0.0164661
0.0165225
0.0165802
0.016641
0.0167023
0.0167696
0.016847
0.0169281
0.0170057
0.017083
0.01716
0.0172325
0.0173009
0.0173696
0.0174343
0.0174924
0.0175494
0.0176101
0.0176724
0.0177341
0.01779
0.0178328
0.0178604
0.0178787
0.0178924
0.0179069
0.0179242
0.0179381
0.0179412
0.0179358
0.0179261
0.0179191
0.017927
0.0179535
0.0179845
0.0180074
0.0180138
0.0179962
0.0179618
0.0179363
0.0179388
0.0179762
0.0180493
0.0181446
0.0182305
0.0182788
0.0182747
0.0182106
0.0180876
0.0179242
0.0177446
0.0175648
0.0173976
0.0172567
0.017146
0.01706
0.0169959
0.0169533
0.0169245
0.0169023
0.0168871
0.0168779
0.0168696
0.0168615
0.0168563
0.0168532
0.0168502
0.016849
0.0168512
0.0168559
0.0168623
0.0168715
0.016884
0.0168984
0.0169141
0.0169314
0.0169498
0.016968
0.0169856
0.0170031
0.0170205
0.0170374
0.0170555
0.0170762
0.0170997
0.0171271
0.0171596
0.0171974
0.0172399
0.0172872
0.0173393
0.0173953
0.0174546
0.017517
0.0175819
0.0176479
0.0177145
0.0177814
0.0178479
0.0179138
0.0179789
0.0180434
0.0181063
0.0181667
0.018224
0.0182776
0.0183274
0.0183741
0.0184186
0.0184614
0.0185018
0.0185383
0.018569
0.0185923
0.0186079
0.018617
0.018622
0.0186251
0.0186279
0.0186298
0.0186285
0.018621
0.0186046
0.0185791
0.0185464
0.0185111
0.0184784
0.018453
0.0184371
0.0184309
0.0184327
0.0184406
0.0184536
0.0184719
0.0184969
0.0185301
0.0185722
0.0186233
0.0186829
0.0187507
0.0188273
0.0189139
0.0190121
0.0191232
0.0192475
0.0193841
0.0195316
0.019688
0.0198508
0.0200172
0.0201837
0.020346
0.0204992
0.0206374
0.0207544
0.020844
0.0209005
0.0209193
0.0208976
0.0208344
0.0207316
0.0205936
0.0204276
0.0202437
0.0200536
0.0198698
0.0197037
0.0195633
0.0194532
0.0193744
0.0193254
0.0193046
0.0193112
0.0193457
0.0194084
0.0195008
0.0196256
0.019785
0.0199775
0.0201973
0.0204373
0.0206917
0.0209543
0.0212167
0.0214698
0.0217077
0.0219287
0.0221322
0.0223175
0.0224853
0.0226386
0.0227803
0.0229109
0.0230316
0.0231474
0.023265
0.0233837
0.0234947
0.0235908
0.0236782
0.0237717
0.0238747
0.0239708
0.024039
0.0240795
0.0241175
0.0241772
0.0242517
0.0243057
0.0243126
0.0242885
0.0242834
0.0243322
0.0244173
0.0244847
0.0245017
0.0244939
0.0245163
0.0245791
0.0246093
0.0245069
0.0242712
0.0240734
0.0241682
0.0246726
0.0253594
0.0256528
0.0249388
0.0230426
0.0204821
0.0182386
0.0172277
0.0178383
0.0196693
0.0215094
0.0218189
0.019715
0.0156493
0.01099
0.00696884
0.00409042
0.00227183
0.00121322
0.000629364
0.000319058
0.000158583
7.74046e-05
3.71264e-05
1.74994e-05
8.10225e-06
3.68163e-06
1.6392e-06
7.13106e-07
3.01533e-07
1.22666e-07
4.69683e-08
1.60352e-08
4.07994e-09
7.34959e-10
1.55498e-09
1.60647e-09
1.34236e-09
1.03066e-09
7.57539e-10
5.43273e-10
3.84639e-10
2.69245e-10
1.86908e-10
1.28903e-10
8.81429e-11
5.93626e-11
3.97741e-11
2.67702e-11
1.7407e-11
1.12584e-11
7.263e-12
4.60262e-12
2.965e-12
1.81539e-12
1.19309e-12
6.4892e-13
4.79959e-13
4.18827e-13
8.61643e-14
1.55175e-13
1.53185e-13
3.68425e-14
6.39051e-14
5.5203e-14
5.65003e-14
5.5983e-14
1.82943e-14
1.48064e-14
1.94032e-14
3.96689e-14
8.92274e-15
2.86695e-14
3.65446e-14
2.95699e-14
9.04755e-15
1.04394e-14
2.44508e-14
3.01046e-14
3.85491e-14
1.57576e-14
1.20075e-14
2.15347e-14
6.37798e-15
2.6619e-14
1.68194e-14
2.0978e-15
2.21479e-14
1.06509e-14
6.35391e-15
1.63147e-14
1.13213e-14
7.08392e-15
1.22506e-14
1.39771e-14
1.06144e-14
1.06144e-14
0.04
0.0247916
0.0225894
0.0195029
0.0204502
0.0224793
0.0213671
0.0197552
0.02005
0.0206446
0.0201621
0.0196934
0.0197789
0.0199384
0.019892
0.0199978
0.0201847
0.0202768
0.0202932
0.0203664
0.0203958
0.0203564
0.0203142
0.0203015
0.0202704
0.0202134
0.0201947
0.0201579
0.0201446
0.0200821
0.0200996
0.0200359
0.0200659
0.0199941
0.0200566
0.0199801
0.0200496
0.0199723
0.0200444
0.019962
0.0200227
0.0199497
0.0200016
0.0199455
0.0199953
0.0199669
0.0200174
0.020014
0.0200647
0.0200791
0.0201262
0.0201488
0.0201896
0.0202161
0.0202511
0.0202781
0.0203128
0.0203446
0.0203799
0.0204175
0.0204614
0.0205069
0.0205584
0.020618
0.0206838
0.0207538
0.0208319
0.0209171
0.0210053
0.0210985
0.0211991
0.0213014
0.0214028
0.0215053
0.021607
0.0217023
0.0217936
0.0218841
0.0219714
0.0220534
0.0221345
0.022217
0.0222989
0.022382
0.0224731
0.0225701
0.0226672
0.0227643
0.022863
0.0229562
0.0230434
0.0231298
0.0232148
0.0232923
0.0233652
0.0234381
0.0235108
0.0235806
0.0236486
0.023711
0.0237602
0.0237931
0.0238157
0.0238322
0.0238438
0.0238525
0.0238589
0.0238547
0.0238378
0.0238175
0.0238007
0.0237898
0.0237911
0.0238002
0.0238004
0.0237814
0.023745
0.0236961
0.023649
0.0236259
0.0236387
0.0236821
0.0237426
0.0237996
0.0238252
0.0237981
0.0237139
0.0235773
0.0233993
0.0231992
0.0229998
0.0228142
0.0226496
0.0225131
0.0224063
0.0223223
0.0222566
0.022208
0.022171
0.0221391
0.0221121
0.02209
0.022069
0.0220483
0.0220299
0.0220135
0.0219982
0.0219847
0.021974
0.0219664
0.0219612
0.0219584
0.0219584
0.0219608
0.0219643
0.0219686
0.021974
0.0219796
0.0219849
0.0219904
0.0219967
0.0220038
0.0220126
0.0220245
0.0220401
0.02206
0.0220847
0.0221148
0.0221497
0.0221892
0.0222331
0.0222805
0.0223301
0.0223814
0.0224336
0.0224858
0.0225379
0.0225899
0.0226417
0.0226928
0.0227429
0.0227913
0.0228377
0.0228816
0.0229228
0.0229616
0.0229979
0.0230315
0.0230618
0.0230881
0.0231094
0.0231253
0.023136
0.0231421
0.0231444
0.0231434
0.0231389
0.0231304
0.0231171
0.0230986
0.0230743
0.0230439
0.0230071
0.0229645
0.0229176
0.0228697
0.0228252
0.0227884
0.0227625
0.0227483
0.0227448
0.0227495
0.0227598
0.0227737
0.0227902
0.0228095
0.0228322
0.0228599
0.0228949
0.0229399
0.0229978
0.0230711
0.0231608
0.0232663
0.0233854
0.0235151
0.0236523
0.0237937
0.023936
0.0240749
0.0242053
0.0243205
0.0244133
0.0244774
0.0245081
0.0245034
0.0244647
0.0243954
0.0243004
0.0241842
0.0240506
0.0239023
0.0237418
0.0235724
0.0233992
0.0232283
0.023067
0.0229221
0.022799
0.0227009
0.0226298
0.0225873
0.0225747
0.0225918
0.0226376
0.0227113
0.0228127
0.0229403
0.0230899
0.023256
0.0234337
0.0236182
0.0238032
0.023982
0.02415
0.0243052
0.0244459
0.0245693
0.0246747
0.0247646
0.0248432
0.0249113
0.0249681
0.0250163
0.025062
0.025108
0.0251485
0.0251757
0.0251916
0.0252078
0.025231
0.0252501
0.0252454
0.0252131
0.0251742
0.0251519
0.0251417
0.0251116
0.0250385
0.0249401
0.0248626
0.0248333
0.0248306
0.0248049
0.0247325
0.0246445
0.0245938
0.0245875
0.0245576
0.0244113
0.0241358
0.02387
0.0238508
0.0242208
0.0248069
0.0250742
0.0244106
0.0226142
0.0201604
0.017977
0.0169351
0.0174263
0.0191197
0.0209076
0.0213067
0.0193916
0.0155142
0.0109738
0.00700038
0.00412887
0.00230254
0.00123424
0.000642731
0.000327224
0.000163461
8.02812e-05
3.8812e-05
1.84856e-05
8.68065e-06
4.02281e-06
1.84215e-06
8.35084e-07
3.75689e-07
1.68282e-07
7.53504e-08
3.38698e-08
1.5341e-08
7.01781e-09
3.23831e-09
1.49875e-09
6.8844e-10
3.07345e-10
1.28598e-10
4.9958e-11
2.28269e-11
1.95221e-11
1.85693e-11
1.54973e-11
1.17903e-11
8.62795e-12
5.41205e-12
2.81555e-12
1.81524e-12
8.87279e-13
3.8847e-13
3.04323e-13
6.65478e-13
4.81582e-13
3.78602e-13
3.85081e-13
3.18267e-13
2.60503e-13
1.03209e-13
1.4709e-13
1.03657e-13
8.31435e-14
5.20955e-14
2.10604e-14
4.99821e-14
2.56397e-14
3.80174e-14
2.85527e-14
1.59627e-14
1.56607e-14
1.56145e-14
3.50854e-14
4.27809e-14
8.2498e-15
4.34289e-14
2.85186e-14
1.63921e-14
2.94788e-14
7.03902e-15
3.9371e-14
1.90865e-14
8.59925e-15
1.80865e-14
1.0188e-14
2.02579e-14
1.72643e-14
1.73109e-15
1.59359e-14
1.34121e-14
3.61924e-15
1.22365e-14
1.43457e-14
7.91941e-15
1.0058e-14
1.2363e-14
1.2363e-14
0.04
0.0266768
0.0279364
0.02768
0.0270402
0.024205
0.0225222
0.0234746
0.0240296
0.0228377
0.0219819
0.0222647
0.022365
0.0220231
0.0219245
0.0221831
0.0222822
0.0223123
0.0224457
0.0225991
0.0226197
0.0226462
0.0227151
0.0227539
0.0227472
0.022764
0.0228049
0.0228009
0.0228164
0.022814
0.0228634
0.0228294
0.0228926
0.0228585
0.0229467
0.0228855
0.0229933
0.022926
0.0230349
0.0229561
0.0230652
0.0229902
0.0230866
0.0230278
0.0231176
0.0230809
0.0231619
0.0231509
0.0232222
0.0232292
0.0232907
0.0233089
0.0233601
0.0233851
0.0234282
0.0234578
0.0234996
0.0235343
0.0235772
0.023621
0.0236696
0.0237189
0.0237754
0.0238357
0.0238989
0.0239676
0.0240435
0.0241224
0.024206
0.024298
0.0243952
0.0244942
0.0245981
0.0247051
0.0248089
0.0249097
0.0250111
0.0251088
0.0252
0.0252897
0.0253806
0.0254681
0.0255544
0.0256464
0.025744
0.0258417
0.0259428
0.0260483
0.0261508
0.026246
0.0263409
0.0264346
0.0265217
0.0266057
0.0266909
0.026771
0.0268462
0.0269213
0.0269936
0.027056
0.0271093
0.0271509
0.0271777
0.0271943
0.0272063
0.0272105
0.0272082
0.0272007
0.027183
0.0271564
0.0271323
0.0271128
0.0270964
0.027085
0.0270702
0.0270377
0.0269888
0.026932
0.0268755
0.0268344
0.0268246
0.0268433
0.0268749
0.0269021
0.026904
0.0268579
0.0267544
0.0266002
0.0264071
0.026189
0.0259661
0.025757
0.02557
0.0254076
0.0252738
0.0251675
0.0250809
0.0250092
0.0249515
0.0249033
0.0248586
0.0248171
0.0247795
0.0247431
0.0247064
0.0246709
0.0246379
0.0246064
0.0245761
0.0245484
0.0245246
0.024503
0.024483
0.0244656
0.0244507
0.0244363
0.0244224
0.0244102
0.0243986
0.024387
0.0243766
0.0243681
0.024361
0.0243562
0.0243552
0.0243584
0.0243658
0.0243785
0.0243968
0.0244201
0.0244476
0.0244787
0.024512
0.0245458
0.0245797
0.0246139
0.0246479
0.024682
0.0247163
0.0247504
0.0247829
0.0248133
0.0248413
0.0248674
0.0248917
0.0249148
0.0249362
0.0249547
0.0249684
0.0249761
0.0249776
0.0249738
0.0249668
0.0249581
0.0249477
0.0249339
0.024914
0.0248856
0.0248482
0.0248032
0.0247534
0.0247006
0.0246448
0.0245849
0.0245197
0.0244506
0.0243817
0.0243192
0.0242688
0.0242338
0.0242133
0.0242035
0.0241991
0.0241956
0.0241905
0.0241835
0.0241767
0.0241735
0.0241781
0.024195
0.0242279
0.0242796
0.0243507
0.0244397
0.0245436
0.0246582
0.0247793
0.0249029
0.0250245
0.025139
0.0252393
0.0253172
0.0253643
0.0253742
0.0253445
0.0252773
0.0251799
0.0250624
0.0249351
0.0248058
0.0246782
0.0245513
0.0244206
0.0242813
0.0241303
0.0239682
0.0238
0.0236341
0.02348
0.0233463
0.0232389
0.0231622
0.0231185
0.0231073
0.0231258
0.0231698
0.0232366
0.023324
0.0234291
0.0235481
0.0236774
0.0238137
0.0239532
0.024092
0.024227
0.0243557
0.0244747
0.0245792
0.0246669
0.0247405
0.0248048
0.0248611
0.0249066
0.0249412
0.0249705
0.0249998
0.0250269
0.0250449
0.0250526
0.0250588
0.0250703
0.0250786
0.0250659
0.0250285
0.0249865
0.0249623
0.02495
0.0249152
0.0248351
0.0247328
0.0246608
0.0246464
0.0246578
0.0246338
0.0245477
0.0244416
0.0243859
0.0244036
0.0244298
0.0243527
0.0241204
0.0238359
0.0237346
0.0240072
0.0245541
0.0248858
0.0243704
0.0227314
0.0203697
0.0181839
0.0170638
0.0174529
0.0190883
0.0209086
0.0214121
0.0195997
0.0157608
0.0111905
0.00715521
0.00422467
0.00235621
0.00126224
0.000656498
0.000333596
0.000166185
8.13004e-05
3.90869e-05
1.84694e-05
8.5745e-06
3.90808e-06
1.74626e-06
7.63076e-07
3.2461e-07
1.33246e-07
5.18196e-08
1.83017e-08
5.23281e-09
1.2232e-09
1.53751e-09
1.59876e-09
1.35167e-09
1.04335e-09
7.70902e-10
5.56163e-10
3.94381e-10
2.77157e-10
1.93067e-10
1.32945e-10
9.06394e-11
6.19346e-11
4.1959e-11
2.74461e-11
1.81012e-11
1.18986e-11
7.57768e-12
4.83415e-12
3.12332e-12
1.92747e-12
1.09872e-12
9.33802e-13
5.03495e-13
1.90162e-13
3.55129e-13
1.30312e-13
8.37476e-14
9.33712e-14
2.38645e-14
9.90832e-14
4.14145e-14
3.87991e-14
4.04197e-14
3.0679e-14
1.64007e-14
3.55094e-14
1.01441e-15
7.35032e-14
2.15664e-14
1.09646e-14
2.91149e-14
7.93277e-15
7.18067e-14
1.20767e-14
3.33632e-14
1.96577e-14
1.02717e-14
2.15177e-14
2.44989e-14
1.15991e-14
1.44288e-14
2.1516e-14
7.23105e-15
9.46422e-15
1.94513e-14
5.92645e-15
6.31867e-15
1.51196e-14
1.09974e-14
7.46179e-15
1.03422e-14
1.03422e-14
0.04
0.0274546
0.0285191
0.0271164
0.0262187
0.0260867
0.0268689
0.0260252
0.0244337
0.0242234
0.0247878
0.0244003
0.0235953
0.0235033
0.0237045
0.0236128
0.0234879
0.023654
0.02381
0.0238498
0.0239204
0.024065
0.0241354
0.0241691
0.0242397
0.0243148
0.0243471
0.0243695
0.0244293
0.0244499
0.0244915
0.0244891
0.0245702
0.0245431
0.0246325
0.0245879
0.0247054
0.024631
0.0247578
0.0246769
0.0248061
0.0247186
0.0248426
0.0247685
0.0248771
0.0248221
0.024918
0.0248851
0.0249638
0.0249523
0.0250158
0.0250185
0.0250696
0.0250828
0.025125
0.025147
0.0251859
0.0252156
0.025258
0.0252969
0.0253426
0.0253901
0.0254427
0.0254948
0.0255513
0.0256118
0.0256746
0.0257409
0.0258152
0.0258954
0.02598
0.026072
0.0261708
0.0262708
0.0263724
0.0264771
0.0265797
0.0266764
0.0267708
0.0268638
0.0269524
0.0270385
0.0271287
0.0272214
0.0273133
0.0274081
0.0275099
0.0276117
0.0277098
0.027808
0.0279053
0.0279951
0.028082
0.0281718
0.0282607
0.0283435
0.0284236
0.0285009
0.0285712
0.0286325
0.0286869
0.0287327
0.028765
0.028783
0.0287933
0.0287955
0.0287863
0.0287708
0.0287528
0.0287263
0.028695
0.0286682
0.0286428
0.0286125
0.0285793
0.0285383
0.0284813
0.028415
0.028354
0.0283052
0.0282747
0.0282682
0.0282762
0.0282763
0.0282506
0.0281861
0.0280707
0.0279029
0.0276973
0.0274705
0.0272358
0.0270089
0.0268047
0.0266272
0.0264748
0.0263483
0.0262466
0.0261616
0.0260879
0.0260253
0.0259705
0.0259179
0.025867
0.025819
0.025772
0.0257246
0.0256777
0.025633
0.0255904
0.0255489
0.0255092
0.0254731
0.0254397
0.0254069
0.0253761
0.025348
0.0253207
0.0252938
0.025269
0.025246
0.0252235
0.0252027
0.0251846
0.0251688
0.0251557
0.0251469
0.0251429
0.0251434
0.0251491
0.0251602
0.0251754
0.0251933
0.0252133
0.0252342
0.0252549
0.0252754
0.0252964
0.0253178
0.025339
0.0253597
0.0253791
0.0253965
0.0254115
0.0254247
0.0254371
0.0254486
0.0254588
0.0254664
0.0254695
0.0254663
0.0254568
0.0254424
0.0254253
0.0254075
0.025389
0.0253675
0.0253388
0.0252992
0.0252476
0.0251858
0.0251183
0.0250491
0.0249801
0.0249104
0.0248379
0.0247622
0.0246861
0.0246153
0.0245558
0.0245115
0.0244819
0.0244629
0.0244484
0.0244335
0.0244158
0.024396
0.0243774
0.0243642
0.0243606
0.0243705
0.0243968
0.0244415
0.0245053
0.0245872
0.0246845
0.0247933
0.0249087
0.0250252
0.0251369
0.0252368
0.0253167
0.0253678
0.0253822
0.0253549
0.0252859
0.0251808
0.0250508
0.0249102
0.024773
0.0246493
0.0245431
0.0244515
0.0243661
0.0242759
0.0241716
0.0240482
0.0239072
0.0237557
0.0236051
0.0234671
0.0233514
0.0232652
0.0232129
0.0231949
0.0232069
0.0232421
0.0232949
0.0233622
0.0234428
0.023535
0.0236368
0.0237462
0.0238611
0.0239799
0.024101
0.0242227
0.0243405
0.024448
0.0245414
0.0246227
0.0246961
0.0247616
0.0248152
0.0248558
0.0248903
0.0249262
0.0249627
0.0249907
0.0250052
0.0250132
0.0250255
0.0250395
0.0250398
0.0250178
0.0249852
0.0249603
0.024942
0.0249058
0.0248357
0.0247525
0.0246981
0.0246895
0.024693
0.0246537
0.0245551
0.0244456
0.0243978
0.0244337
0.0244852
0.0244327
0.0242105
0.023905
0.0237455
0.0239357
0.0244075
0.0247097
0.0242333
0.0226938
0.0204544
0.018363
0.0172689
0.0176029
0.0191307
0.0208537
0.021324
0.019544
0.0157591
0.0112244
0.00719795
0.0042609
0.00238202
0.00127903
0.000666899
0.000339864
0.000169906
8.34928e-05
4.03769e-05
1.92305e-05
9.02643e-06
4.17883e-06
1.91021e-06
8.63505e-07
3.86849e-07
1.72241e-07
7.64765e-08
3.39889e-08
1.51704e-08
6.81002e-09
3.07235e-09
1.38733e-09
6.21243e-10
2.76586e-10
1.29208e-10
7.35391e-11
5.48071e-11
4.40697e-11
3.48583e-11
2.66908e-11
1.92906e-11
1.26531e-11
8.37346e-12
5.78953e-12
3.1934e-12
1.65969e-12
9.32743e-13
7.43747e-13
4.03356e-13
3.89114e-13
4.72604e-13
4.08609e-13
2.15443e-13
1.39971e-13
2.77036e-13
9.40523e-14
6.83655e-14
8.31348e-14
3.61499e-14
9.9722e-14
4.17251e-14
4.80149e-14
5.41941e-14
2.87952e-15
2.33762e-14
4.32662e-14
2.99415e-14
5.79497e-14
4.45251e-14
5.69675e-14
1.66701e-14
3.16131e-14
3.20298e-14
5.10274e-14
3.69203e-14
1.89468e-14
1.50753e-14
2.63541e-16
1.77409e-14
2.79178e-14
5.79123e-15
8.47774e-15
2.39447e-14
3.50323e-15
4.37518e-15
1.98165e-14
9.23584e-15
4.24547e-15
1.31296e-14
1.2161e-14
7.69847e-15
7.69847e-15
0.04
0.02546
0.0258957
0.0270633
0.0277114
0.0273996
0.0268496
0.0260299
0.0262023
0.0264097
0.0257074
0.0249074
0.0249386
0.0250372
0.0246332
0.0243193
0.0244294
0.0245519
0.0244914
0.0245328
0.0246978
0.0248018
0.0248417
0.0249435
0.0250537
0.0251068
0.0251497
0.0252161
0.0252739
0.0252855
0.0253369
0.0253555
0.0254211
0.0253946
0.025488
0.025444
0.0255505
0.025474
0.0256081
0.0255169
0.0256535
0.025559
0.0256954
0.0256039
0.0257233
0.0256509
0.0257495
0.0256955
0.0257756
0.025744
0.0258045
0.0257924
0.0258404
0.0258415
0.0258807
0.0258941
0.0259296
0.0259539
0.0259927
0.0260264
0.0260699
0.0261137
0.0261608
0.0262075
0.0262585
0.0263092
0.0263608
0.0264177
0.0264805
0.026547
0.0266216
0.0267061
0.0267959
0.0268902
0.0269925
0.0270978
0.0271995
0.0272999
0.0273992
0.0274909
0.0275775
0.0276668
0.0277572
0.0278437
0.0279324
0.0280273
0.0281231
0.028217
0.0283151
0.0284142
0.0285056
0.0285927
0.028685
0.0287763
0.028863
0.0289505
0.0290362
0.0291091
0.029175
0.0292398
0.0292965
0.0293414
0.0293792
0.0294026
0.0294074
0.0294032
0.0293938
0.0293745
0.0293519
0.0293285
0.0292971
0.0292594
0.029223
0.0291825
0.0291354
0.0290855
0.0290292
0.0289628
0.0288969
0.0288415
0.0287978
0.0287682
0.0287514
0.0287312
0.0286876
0.028609
0.0284877
0.0283189
0.0281104
0.0278792
0.0276411
0.0274077
0.0271918
0.0270027
0.0268413
0.026704
0.02659
0.0264973
0.0264188
0.0263491
0.026288
0.0262333
0.0261798
0.0261268
0.0260757
0.0260255
0.0259746
0.0259234
0.0258743
0.0258274
0.0257811
0.025736
0.0256942
0.0256548
0.0256156
0.0255783
0.0255441
0.0255112
0.0254792
0.0254501
0.0254234
0.0253978
0.0253744
0.025354
0.0253363
0.0253216
0.0253117
0.025307
0.025307
0.0253119
0.0253212
0.0253331
0.0253462
0.0253599
0.0253741
0.0253883
0.025403
0.0254184
0.0254341
0.0254487
0.0254617
0.0254726
0.0254819
0.0254901
0.0254984
0.025507
0.0255147
0.0255196
0.0255195
0.025513
0.0255003
0.0254836
0.0254657
0.0254483
0.0254305
0.0254089
0.0253784
0.0253346
0.0252764
0.025207
0.0251319
0.0250565
0.0249836
0.0249124
0.0248404
0.0247662
0.024692
0.0246226
0.0245641
0.0245198
0.0244888
0.0244664
0.0244464
0.0244244
0.0243997
0.0243749
0.0243549
0.0243445
0.0243473
0.0243652
0.024399
0.0244486
0.0245138
0.0245935
0.0246861
0.0247887
0.0248971
0.0250058
0.025108
0.0251958
0.02526
0.0252919
0.0252843
0.0252344
0.0251441
0.0250213
0.024879
0.0247332
0.024599
0.0244876
0.0244034
0.0243437
0.024299
0.0242556
0.0242001
0.0241231
0.0240216
0.0239
0.0237692
0.0236421
0.0235307
0.0234439
0.0233875
0.0233627
0.0233655
0.0233886
0.0234249
0.0234712
0.0235265
0.0235905
0.0236627
0.0237425
0.0238304
0.0239275
0.0240347
0.0241494
0.0242648
0.0243726
0.0244685
0.024555
0.0246365
0.0247116
0.0247737
0.0248199
0.0248568
0.0248941
0.0249333
0.0249664
0.0249868
0.0249989
0.0250118
0.0250245
0.0250252
0.0250073
0.0249799
0.0249576
0.0249377
0.0248979
0.024825
0.024741
0.0246887
0.0246856
0.0246947
0.0246521
0.0245329
0.0243906
0.0243206
0.024371
0.0244769
0.0244877
0.0242904
0.0239413
0.023676
0.0237407
0.0241302
0.0244505
0.0241036
0.0227467
0.0206463
0.0185849
0.0174186
0.0176408
0.0190906
0.0208133
0.0213508
0.0196526
0.0159134
0.0113747
0.00731419
0.00433784
0.00242783
0.00130435
0.000680107
0.000346402
0.000172959
8.48087e-05
4.08712e-05
1.93622e-05
9.01472e-06
4.12238e-06
1.84949e-06
8.12441e-07
3.4814e-07
1.44497e-07
5.72619e-08
2.10047e-08
6.65288e-09
1.83671e-09
1.49573e-09
1.53893e-09
1.3186e-09
1.03176e-09
7.69234e-10
5.57895e-10
3.98662e-10
2.80973e-10
1.95866e-10
1.35846e-10
9.38893e-11
6.37946e-11
4.25463e-11
2.85453e-11
1.8853e-11
1.21461e-11
7.96362e-12
5.16519e-12
3.02983e-12
2.00884e-12
1.49879e-12
6.40915e-13
4.71119e-13
4.86915e-13
1.12563e-13
1.56548e-13
1.4288e-13
4.33208e-14
1.16869e-13
4.47581e-14
2.523e-14
6.71074e-14
3.77135e-14
1.0787e-14
4.19842e-14
5.51273e-14
4.89439e-14
1.66411e-14
2.35736e-14
3.25424e-14
6.00542e-14
6.17443e-14
4.5012e-14
1.27161e-14
2.7717e-14
1.12572e-14
3.19698e-14
1.18913e-14
1.41402e-14
2.4878e-14
1.57766e-14
3.10352e-15
1.8368e-14
1.40065e-14
1.29191e-15
1.17399e-14
1.5082e-14
7.50115e-15
8.66032e-15
1.1538e-14
1.0268e-14
1.0268e-14
0.04
0.0255433
0.0262431
0.0266419
0.0266917
0.0266146
0.0266536
0.0269233
0.0270418
0.0262484
0.0258041
0.0260787
0.0260248
0.0253369
0.0250152
0.0251727
0.0251188
0.0248526
0.0248504
0.0250326
0.025076
0.025078
0.025203
0.0253396
0.0253854
0.0254399
0.0255362
0.0255932
0.0256168
0.0256493
0.0257144
0.0257148
0.0257641
0.0257542
0.0258403
0.0257821
0.0258857
0.0258145
0.0259418
0.0258421
0.0259871
0.0258875
0.0260248
0.0259255
0.0260513
0.0259637
0.0260615
0.0259955
0.026072
0.0260258
0.0260846
0.0260625
0.0261069
0.0261016
0.026139
0.026147
0.026181
0.0262017
0.0262375
0.0262693
0.0263121
0.0263527
0.0263982
0.0264444
0.0264911
0.0265355
0.0265828
0.0266327
0.0266846
0.0267428
0.0268109
0.0268859
0.0269688
0.0270632
0.0271657
0.02727
0.0273775
0.0274856
0.027586
0.0276792
0.027773
0.0278646
0.0279511
0.0280383
0.0281302
0.0282203
0.0283093
0.0284043
0.0285038
0.0285974
0.0286873
0.0287791
0.0288711
0.0289608
0.029054
0.0291474
0.029232
0.0293053
0.0293726
0.0294355
0.0294937
0.0295442
0.0295856
0.0296125
0.0296192
0.0296097
0.0295961
0.0295782
0.0295545
0.0295304
0.0295032
0.0294622
0.0294132
0.0293645
0.0293111
0.0292519
0.0291952
0.0291372
0.0290722
0.0290098
0.028959
0.0289143
0.028872
0.0288302
0.0287736
0.0286832
0.0285541
0.0283872
0.0281834
0.0279526
0.0277137
0.0274811
0.0272627
0.0270661
0.0268983
0.0267579
0.026639
0.0265399
0.0264595
0.026391
0.0263289
0.0262732
0.026223
0.0261736
0.0261233
0.0260739
0.0260256
0.0259764
0.0259258
0.0258766
0.0258298
0.025783
0.0257363
0.0256928
0.025652
0.0256113
0.0255726
0.0255379
0.0255051
0.0254737
0.0254457
0.0254208
0.0253972
0.0253759
0.0253581
0.0253432
0.0253315
0.0253244
0.0253225
0.0253245
0.0253302
0.0253393
0.0253501
0.0253614
0.0253734
0.0253861
0.0253989
0.0254116
0.0254241
0.025436
0.0254461
0.0254547
0.0254625
0.0254703
0.0254784
0.025487
0.0254949
0.0255002
0.0255005
0.0254951
0.0254843
0.0254698
0.0254541
0.0254387
0.0254224
0.0254014
0.0253705
0.0253253
0.0252644
0.025191
0.0251115
0.0250326
0.0249583
0.0248889
0.0248219
0.0247548
0.0246874
0.0246228
0.0245656
0.0245191
0.024483
0.024454
0.0244277
0.024401
0.0243748
0.0243527
0.0243398
0.0243404
0.0243563
0.0243872
0.0244311
0.0244864
0.024552
0.0246271
0.024711
0.024802
0.0248966
0.0249895
0.025074
0.0251422
0.0251863
0.0251989
0.0251752
0.0251139
0.0250178
0.0248945
0.0247556
0.0246154
0.024488
0.0243843
0.0243103
0.0242656
0.024243
0.0242303
0.0242136
0.0241811
0.0241256
0.0240465
0.0239502
0.0238476
0.0237502
0.0236678
0.0236077
0.0235729
0.0235612
0.0235662
0.0235809
0.0236016
0.0236281
0.0236616
0.0237029
0.0237526
0.0238124
0.0238852
0.0239735
0.0240756
0.0241843
0.0242898
0.0243869
0.0244776
0.0245656
0.0246482
0.0247172
0.0247689
0.0248101
0.0248509
0.024894
0.0249317
0.0249574
0.0249738
0.0249883
0.0250013
0.0250045
0.0249932
0.0249737
0.0249551
0.0249327
0.0248887
0.0248165
0.0247395
0.0246964
0.0247001
0.0247109
0.0246617
0.024525
0.0243591
0.0242772
0.0243475
0.0245051
0.0245704
0.02439
0.0239967
0.0236357
0.0235879
0.0238943
0.0242052
0.0239415
0.0227306
0.020772
0.0187896
0.0176255
0.0177944
0.0191691
0.0208277
0.021336
0.0196446
0.0159269
0.0114027
0.00734382
0.00436169
0.00244445
0.00131507
0.000686731
0.000350399
0.000175342
8.62249e-05
4.17146e-05
1.98679e-05
9.32111e-06
4.31036e-06
1.96637e-06
8.8605e-07
3.95038e-07
1.74657e-07
7.67884e-08
3.36685e-08
1.47587e-08
6.48005e-09
2.84979e-09
1.25638e-09
5.66443e-10
2.78772e-10
1.67043e-10
1.20496e-10
9.25417e-11
7.15024e-11
5.36743e-11
3.84759e-11
2.67337e-11
1.91282e-11
1.30007e-11
7.72443e-12
4.92038e-12
2.95534e-12
1.58562e-12
1.00028e-12
5.97781e-13
4.81161e-13
4.15016e-13
2.25766e-13
2.98466e-13
3.19759e-13
1.23029e-13
1.36958e-13
1.59467e-13
4.17031e-14
7.70901e-14
9.56603e-14
2.79211e-14
1.0112e-13
4.69742e-14
5.394e-14
1.07727e-14
5.67635e-14
1.64374e-14
8.10458e-14
2.90519e-14
2.847e-14
4.88168e-14
2.95319e-14
6.98738e-14
2.14791e-14
1.46142e-14
1.53547e-14
1.31386e-14
2.8333e-14
1.40423e-14
1.52799e-14
2.40124e-14
1.72822e-14
7.96358e-15
1.77397e-14
1.95017e-14
1.71312e-15
8.83141e-15
1.70629e-14
7.74733e-15
6.9419e-15
1.12392e-14
1.12392e-14
0.04
0.0261859
0.0267172
0.0263186
0.0265694
0.0268312
0.0268609
0.0267327
0.0265042
0.0264362
0.0266635