# vtk DataFile Version 3.0
LBM output step 470
ASCII
DATASET STRUCTURED_POINTS
DIMENSIONS 400 100 1
ORIGIN 0 0 0
SPACING 1 1 1
POINT_DATA 40000
SCALARS velocity_magnitude double 1
LOOKUP_TABLE default
0
0
0
0
0
0
0
0
0
0
0
0
0
0
0
0
0
0
0
0
0
0
0
0
0
0
0
0
0
0
0
0
0
0
0
0
0
0
0
0
0
0
0
0
0
0
0
0
0
0
0
0
0
0
0
0
0
0
0
0
0
0
0
0
0
0
0
0
0
0
0
0
0
0
0
0
0
0
0
0
0
0
0
0
0
0
0
0
0
0
0
0
0
0
0
0
0
0
0
0
0
0
0
0
0
0
0
0
0
0
0
0
0
0
0
0
0
0
0
0
0
0
0
0
0
0
0
0
0
0
0
0
0
0
0
0
0
0
0
0
0
0
0
0
0
0
0
0
0
0
0
0
0
0
0
0
0
0
0
0
0
0
0
0
0
0
0
0
0
0
0
0
0
0
0
0
0
0
0
0
0
0
0
0
0
0
0
0
0
0
0
0
0
0
0
0
0
0
0
0
0
0
0
0
0
0
0
0
0
0
0
0
0
0
0
0
0
0
0
0
0
0
0
0
0
0
0
0
0
0
0
0
0
0
0
0
0
0
0
0
0
0
0
0
0
0
0
0
0
0
0
0
0
0
0
0
0
0
0
0
0
0
0
0
0
0
0
0
0
0
0
0
0
0
0
0
0
0
0
0
0
0
0
0
0
0
0
0
0
0
0
0
0
0
0
0
0
0
0
0
0
0
0
0
0
0
0
0
0
0
0
0
0
0
0
0
0
0
0
0
0
0
0
0
0
0
0
0
0
0
0
0
0
0
0
0
0
0
0
0
0
0
0
0
0
0
0
0
0
0
0
0
0
0
0
0
0
0
0
0
0
0
0
0
0
0
0
0
0
0
0
0
0
0
0
0
0
0
0
0
0
0
0
0
0
0
0
0
0
0
0
0
0
0
0
0
0
0
0
0
0.04
0.0130922
0.00790597
0.0136588
0.0159117
0.0155151
0.0127654
0.0124428
0.0125373
0.0126107
0.0122805
0.0123223
0.012106
0.0119903
0.0118977
0.0119051
0.011745
0.0116347
0.0115523
0.0115046
0.0114266
0.0113931
0.0113831
0.0113435
0.0113108
0.011252
0.0112177
0.0111211
0.0110773
0.0109881
0.0109507
0.0108553
0.0108163
0.0107268
0.0106769
0.0105884
0.0105372
0.0104579
0.0104034
0.0103384
0.0102969
0.0102532
0.0102238
0.01019
0.0101516
0.0100958
0.0100234
0.00993268
0.00982723
0.00971311
0.00959828
0.00949317
0.0094061
0.00934293
0.0093016
0.00927602
0.00925612
0.00923736
0.00922326
0.00922427
0.00924791
0.00929606
0.00936012
0.00942334
0.00947221
0.00950726
0.00953922
0.00958319
0.00965237
0.00974751
0.00985317
0.00994884
0.0100207
0.0100663
0.0101
0.0101497
0.0102415
0.0103842
0.0105698
0.0107726
0.0109553
0.0110827
0.0111365
0.0111147
0.0110289
0.0109015
0.0107597
0.0106233
0.0105044
0.010409
0.0103394
0.0102906
0.0102571
0.0102343
0.0102195
0.0102076
0.0101965
0.0101858
0.0101751
0.0101627
0.0101498
0.0101365
0.0101226
0.010108
0.0100946
0.0100812
0.010068
0.0100559
0.0100457
0.0100358
0.0100274
0.0100212
0.0100165
0.0100127
0.0100114
0.010012
0.0100137
0.0100169
0.0100225
0.0100292
0.0100367
0.010046
0.0100565
0.0100669
0.0100777
0.0100898
0.0101016
0.0101125
0.0101249
0.0101382
0.0101507
0.0101638
0.0101788
0.0101932
0.0102063
0.0102207
0.0102364
0.0102516
0.0102686
0.0102899
0.0103129
0.0103357
0.010359
0.0103798
0.0103928
0.0103965
0.0103914
0.010376
0.0103508
0.0103207
0.0102893
0.010257
0.0102244
0.0101916
0.0101537
0.0101041
0.0100397
0.00995903
0.00986215
0.00975391
0.00964313
0.00953818
0.00944536
0.0093692
0.00931131
0.00926946
0.00923972
0.00921918
0.00920616
0.00919969
0.00920044
0.00921042
0.00923077
0.00926129
0.00930144
0.00935029
0.00940667
0.00947062
0.00954411
0.00963012
0.00973178
0.00985172
0.00999034
0.0101442
0.0103061
0.0104667
0.0106152
0.0107415
0.0108391
0.0109061
0.0109463
0.0109681
0.0109835
0.0110054
0.0110458
0.0111141
0.0112157
0.0113515
0.0115179
0.0117076
0.011911
0.0121177
0.0123182
0.0125047
0.0126712
0.0128133
0.0129289
0.0130182
0.0130851
0.013135
0.0131735
0.0132047
0.013232
0.0132586
0.013287
0.0133196
0.0133601
0.0134114
0.013474
0.0135455
0.0136245
0.0137115
0.0138065
0.0139075
0.0140133
0.014123
0.0142332
0.014337
0.0144335
0.0145335
0.0146487
0.0147746
0.0148925
0.0149926
0.0150884
0.0152012
0.0153327
0.0154638
0.0155788
0.0156838
0.0157962
0.0159206
0.016045
0.0161598
0.0162712
0.0163895
0.0165079
0.0166106
0.0167065
0.0168426
0.0170567
0.0173128
0.0175056
0.0175549
0.0175074
0.017534
0.0177939
0.0182763
0.0187828
0.0190834
0.0191082
0.0189824
0.0188665
0.018751
0.0183955
0.0174932
0.0159676
0.0141818
0.0128763
0.0128515
0.014536
0.0175608
0.0205667
0.0217143
0.0199279
0.0157708
0.0109025
0.00675578
0.00386267
0.00208824
0.00108586
0.000548833
0.000271246
0.000131502
6.26445e-05
2.93535e-05
1.35402e-05
6.15492e-06
2.76127e-06
1.22538e-06
5.39672e-07
2.36955e-07
1.04323e-07
4.63394e-08
2.08779e-08
9.60188e-09
4.4974e-09
2.11313e-09
1.01123e-09
4.84831e-10
2.17137e-10
9.29235e-11
4.02229e-11
5.04271e-12
3.80524e-11
2.28513e-11
3.95009e-12
2.35787e-11
1.49004e-11
6.87631e-12
3.6885e-12
6.66588e-12
2.8849e-12
1.27592e-11
1.45286e-11
1.93904e-12
1.03842e-11
8.68688e-12
3.26536e-12
1.59953e-12
1.94045e-12
4.47584e-12
3.95999e-12
1.2144e-12
2.05149e-12
2.56519e-12
3.0181e-12
1.6274e-12
1.41495e-12
2.67286e-12
1.54394e-12
8.97878e-13
1.36132e-12
1.39901e-12
1.18312e-12
6.66116e-13
1.51671e-12
7.05156e-13
7.49432e-13
8.95963e-13
6.94061e-14
5.9843e-13
2.85051e-13
1.75998e-13
1.84093e-13
3.44831e-14
1.24903e-13
5.46894e-14
1.45298e-14
1.66345e-14
2.7614e-14
2.85229e-14
2.23403e-14
1.76463e-14
1.62353e-14
1.40283e-14
1.23157e-14
9.6758e-15
8.66789e-15
6.19709e-15
7.16874e-15
5.33615e-15
6.50886e-15
5.68191e-15
5.2719e-15
5.18067e-15
4.83585e-15
4.65156e-15
5.44431e-15
4.17464e-15
4.10847e-15
4.20496e-15
3.98293e-15
3.85478e-15
4.41074e-15
4.33335e-15
4.49565e-15
3.86627e-15
4.03598e-15
3.98451e-15
3.66484e-15
3.66644e-15
4.20781e-15
3.8796e-15
3.81675e-15
3.27061e-15
3.65121e-15
3.72377e-15
3.58007e-15
3.36293e-15
3.34117e-15
3.37568e-15
3.54545e-15
3.51936e-15
3.56665e-15
3.45145e-15
3.67746e-15
3.42447e-15
3.05184e-15
3.05184e-15
0.04
0.0210438
0.0221064
0.0195147
0.0131201
0.0131501
0.0164836
0.0172228
0.015805
0.0154988
0.0158801
0.0159605
0.0158936
0.0161126
0.0161934
0.0161346
0.0161203
0.0161867
0.0161322
0.0160628
0.0160666
0.0160887
0.0160926
0.0160894
0.0161527
0.016143
0.0161847
0.0161621
0.0162438
0.0162099
0.0162945
0.0162735
0.0163682
0.0163397
0.0164264
0.0164136
0.0164875
0.0164772
0.0165393
0.0165436
0.0165976
0.0166195
0.0166774
0.0167102
0.0167522
0.016769
0.0167796
0.0167668
0.0167456
0.016714
0.0166839
0.0166577
0.0166456
0.0166509
0.0166732
0.0167055
0.0167428
0.0167811
0.0168216
0.0168719
0.0169411
0.0170301
0.0171304
0.0172308
0.0173226
0.017403
0.0174814
0.0175747
0.0176922
0.0178303
0.0179788
0.0181211
0.0182395
0.0183322
0.0184181
0.0185192
0.0186548
0.0188375
0.0190611
0.019294
0.0195004
0.0196523
0.0197301
0.0197271
0.0196595
0.019554
0.0194336
0.0193165
0.0192202
0.0191516
0.0191079
0.0190841
0.0190785
0.0190841
0.0190944
0.0191061
0.0191185
0.0191282
0.0191347
0.0191374
0.0191364
0.0191316
0.0191241
0.0191126
0.0190984
0.0190825
0.0190646
0.019044
0.0190237
0.0190027
0.0189796
0.0189573
0.0189371
0.018915
0.018893
0.0188746
0.0188565
0.0188368
0.0188206
0.018807
0.0187912
0.0187762
0.0187655
0.0187538
0.0187402
0.0187297
0.0187212
0.0187107
0.0187009
0.0186945
0.0186883
0.0186808
0.0186756
0.0186726
0.0186684
0.0186638
0.0186623
0.0186623
0.0186621
0.0186644
0.0186705
0.0186767
0.0186809
0.0186836
0.0186823
0.0186723
0.0186538
0.0186287
0.0185966
0.018558
0.0185166
0.0184746
0.01843
0.0183814
0.0183281
0.018267
0.0181939
0.0181089
0.0180144
0.0179135
0.0178113
0.0177154
0.0176319
0.0175634
0.0175111
0.0174746
0.0174511
0.0174375
0.0174329
0.0174377
0.0174527
0.0174793
0.0175191
0.0175726
0.0176389
0.0177162
0.0178037
0.0179005
0.0180067
0.0181236
0.0182534
0.0183967
0.0185529
0.0187194
0.0188902
0.0190578
0.0192135
0.0193499
0.0194618
0.0195478
0.0196109
0.0196583
0.0197001
0.0197476
0.0198112
0.0198989
0.020015
0.02016
0.0203306
0.0205203
0.0207209
0.0209236
0.0211203
0.021304
0.0214696
0.0216133
0.0217333
0.0218292
0.0219034
0.02196
0.0220033
0.0220371
0.0220649
0.02209
0.0221152
0.0221428
0.0221762
0.0222185
0.0222708
0.0223318
0.0224002
0.0224762
0.0225586
0.0226446
0.0227325
0.0228228
0.0229133
0.0229982
0.0230744
0.0231492
0.0232331
0.0233244
0.0234083
0.023476
0.0235377
0.0236101
0.0236938
0.023772
0.0238332
0.0238856
0.0239438
0.0240074
0.0240615
0.0240986
0.0241301
0.024168
0.024204
0.0242195
0.024221
0.0242517
0.0243453
0.0244676
0.0245235
0.0244436
0.0242743
0.0241694
0.0242666
0.0245509
0.0248344
0.0248962
0.0246663
0.0242728
0.023894
0.0235365
0.0229503
0.0218042
0.0200175
0.0179806
0.0164567
0.0162209
0.017648
0.020343
0.022965
0.0236977
0.0214728
0.0168741
0.0116123
0.00716853
0.00408384
0.00219983
0.00113961
0.000573632
0.000282138
0.000135967
6.42716e-05
2.98042e-05
1.35518e-05
6.03556e-06
2.62811e-06
1.11537e-06
4.58747e-07
1.80712e-07
6.644e-08
2.13272e-08
4.67048e-09
1.65387e-09
2.67775e-09
2.5356e-09
2.06897e-09
1.55791e-09
1.10244e-09
7.94702e-10
5.57193e-10
3.70354e-10
2.77467e-10
1.906e-10
1.1299e-10
8.69244e-11
5.48087e-11
3.93573e-11
3.20723e-11
1.19426e-11
1.28483e-11
9.22277e-12
2.35393e-12
1.04814e-11
3.47016e-12
2.44122e-12
2.56523e-12
6.64537e-13
1.78349e-12
2.66204e-12
1.60436e-12
1.79758e-12
2.61609e-12
2.69254e-12
8.26888e-13
2.26278e-12
2.99532e-12
1.1342e-12
1.92754e-12
1.83506e-12
1.52946e-12
1.13274e-12
1.04876e-12
1.4211e-12
3.20111e-13
1.11445e-12
8.97454e-13
2.92174e-13
7.15649e-13
1.63776e-13
3.5777e-13
2.76654e-13
9.33552e-14
1.24161e-13
1.13552e-14
7.77104e-14
4.62033e-14
2.38386e-14
2.29873e-14
2.23836e-14
2.23321e-14
2.11976e-14
1.91023e-14
1.86489e-14
1.80463e-14
1.95669e-14
1.71969e-14
1.77531e-14
1.45849e-14
1.31326e-14
1.00041e-14
9.71713e-15
8.17671e-15
8.5397e-15
7.71016e-15
7.58999e-15
7.18352e-15
7.44836e-15
6.57811e-15
6.58812e-15
6.39265e-15
6.63231e-15
6.5791e-15
6.61292e-15
6.31034e-15
5.61018e-15
5.47582e-15
5.40068e-15
5.18702e-15
5.35679e-15
5.12644e-15
5.41448e-15
5.05266e-15
5.08738e-15
4.98639e-15
5.43944e-15
5.15418e-15
4.90976e-15
5.04274e-15
4.78509e-15
4.97359e-15
4.72952e-15
4.68918e-15
4.84731e-15
4.99914e-15
4.84997e-15
4.68401e-15
4.68401e-15
0.04
0.0225559
0.0202996
0.0170018
0.018333
0.0205049
0.0195164
0.0181359
0.0186382
0.0193837
0.0190505
0.01878
0.0190258
0.019268
0.0192594
0.0193606
0.0194971
0.0195324
0.0195178
0.0195892
0.0196576
0.0196845
0.0197496
0.0198297
0.0199283
0.0199595
0.0200847
0.0201274
0.0202701
0.0202872
0.0204641
0.0204778
0.020651
0.0206587
0.0208374
0.0208451
0.0209986
0.0210081
0.0211327
0.0211383
0.0212342
0.0212543
0.0213377
0.0213697
0.0214388
0.02147
0.0215137
0.0215306
0.021553
0.0215623
0.0215771
0.0215907
0.0216148
0.0216473
0.0216922
0.0217458
0.0218072
0.0218719
0.0219389
0.0220116
0.0220953
0.0221892
0.0222891
0.0223906
0.022487
0.0225759
0.022667
0.022772
0.0228956
0.0230375
0.0231917
0.0233412
0.0234725
0.0235873
0.0236969
0.0238168
0.0239681
0.024163
0.0243922
0.0246304
0.0248506
0.0250228
0.0251235
0.0251485
0.025113
0.025035
0.0249352
0.0248374
0.024759
0.0247029
0.0246697
0.0246598
0.0246684
0.0246863
0.02471
0.0247371
0.024764
0.0247861
0.024804
0.024818
0.0248263
0.0248272
0.0248236
0.0248155
0.0248006
0.0247803
0.0247582
0.024731
0.0246983
0.0246648
0.0246302
0.0245903
0.0245497
0.0245107
0.0244691
0.0244251
0.0243843
0.0243435
0.0242996
0.0242574
0.0242178
0.0241758
0.0241332
0.0240936
0.0240544
0.0240136
0.023975
0.0239389
0.0239021
0.0238652
0.0238312
0.0237982
0.0237643
0.0237317
0.0237022
0.0236729
0.0236439
0.0236177
0.023594
0.0235701
0.0235471
0.0235267
0.0235065
0.0234844
0.023462
0.023439
0.0234124
0.0233814
0.0233472
0.0233079
0.0232608
0.0232062
0.023145
0.0230762
0.0230002
0.0229195
0.0228352
0.0227468
0.0226547
0.0225606
0.0224657
0.0223721
0.0222834
0.022203
0.0221326
0.0220727
0.0220233
0.0219837
0.0219532
0.0219323
0.0219225
0.0219256
0.0219427
0.0219745
0.0220212
0.0220812
0.0221521
0.0222319
0.0223188
0.0224111
0.0225082
0.0226103
0.0227174
0.0228289
0.0229435
0.0230586
0.0231703
0.0232742
0.0233663
0.0234439
0.0235064
0.0235559
0.0235972
0.0236369
0.0236817
0.0237376
0.0238082
0.0238947
0.0239959
0.0241093
0.0242307
0.0243557
0.0244797
0.0245982
0.0247074
0.0248043
0.024887
0.0249538
0.025004
0.0250382
0.0250581
0.0250655
0.0250631
0.0250538
0.0250407
0.0250259
0.0250122
0.025003
0.0250002
0.0250041
0.0250148
0.0250329
0.0250566
0.0250817
0.0251058
0.0251308
0.0251576
0.0251814
0.0251969
0.0252071
0.0252201
0.0252377
0.025251
0.0252532
0.0252499
0.0252516
0.0252576
0.0252562
0.0252416
0.0252236
0.0252131
0.0252025
0.0251735
0.0251234
0.0250718
0.025035
0.0250017
0.0249474
0.0248724
0.0248134
0.0248042
0.0248246
0.0248013
0.0246755
0.0244782
0.0243296
0.0243425
0.0245084
0.024671
0.0246346
0.0243319
0.0238893
0.0234948
0.0231628
0.0226254
0.0215213
0.019764
0.0177535
0.0162308
0.0159212
0.0171846
0.0196968
0.022242
0.0230792
0.021088
0.0167217
0.0116022
0.00721098
0.00413048
0.00223522
0.00116293
0.000588002
0.000290689
0.000140963
6.7165e-05
3.14758e-05
1.45196e-05
6.59954e-06
2.95993e-06
1.31281e-06
5.77659e-07
2.53347e-07
1.1136e-07
4.93429e-08
2.22318e-08
1.01869e-08
4.71956e-09
2.265e-09
1.08584e-09
5.02335e-10
2.34101e-10
9.83049e-11
4.14738e-11
2.4652e-11
1.81589e-11
9.80275e-12
3.2132e-11
9.9098e-12
5.58465e-12
5.27769e-12
6.2563e-12
1.33012e-11
5.0152e-12
1.17527e-12
2.02354e-12
7.63807e-12
6.53618e-12
8.27194e-13
3.49044e-12
1.5405e-12
2.72182e-12
3.41538e-12
9.98268e-13
2.924e-12
3.36741e-12
2.07829e-12
1.27844e-12
1.66576e-12
3.12029e-12
1.95089e-12
1.33363e-12
2.74141e-12
1.23202e-12
1.21601e-12
1.40361e-12
8.61262e-13
9.99292e-13
6.67072e-13
8.55148e-13
4.14769e-13
5.04871e-13
4.31927e-13
1.9339e-13
2.69632e-13
7.67383e-14
1.27215e-13
6.59724e-14
3.2739e-14
4.38039e-14
7.42093e-15
7.7829e-15
1.28873e-14
1.141e-14
5.80371e-15
7.27842e-15
8.98173e-15
8.67365e-15
1.12336e-14
1.06435e-14
1.13267e-14
9.75624e-15
8.78167e-15
7.35935e-15
7.38807e-15
6.87457e-15
7.17341e-15
6.76716e-15
6.80698e-15
6.85435e-15
6.95365e-15
6.51267e-15
6.42598e-15
6.22342e-15
6.5658e-15
6.6675e-15
6.50155e-15
6.28163e-15
5.87085e-15
5.23553e-15
5.72058e-15
5.33605e-15
5.23378e-15
5.21887e-15
5.17486e-15
5.13564e-15
5.22082e-15
5.03547e-15
5.01465e-15
5.09671e-15
4.81066e-15
4.63012e-15
4.95256e-15
4.99904e-15
4.95471e-15
4.54742e-15
4.60101e-15
4.65447e-15
4.50335e-15
4.33002e-15
4.33002e-15
0.04
0.0243898
0.0254789
0.0252027
0.0247026
0.0219906
0.0205558
0.0217015
0.0224144
0.0214093
0.0207618
0.0212334
0.0214442
0.0212025
0.0211797
0.0214497
0.0215219
0.0215174
0.0216314
0.0217751
0.0218252
0.0219005
0.0220521
0.0221658
0.0222767
0.0223832
0.0225743
0.022662
0.0228551
0.0229388
0.0231687
0.0232047
0.023434
0.0234648
0.0236917
0.0237
0.0239057
0.0239061
0.0240598
0.0240427
0.0241574
0.0241482
0.0242366
0.024247
0.0243226
0.0243414
0.0243946
0.0244134
0.024451
0.0244708
0.0245025
0.0245261
0.0245567
0.0245871
0.024627
0.0246758
0.0247375
0.0248068
0.0248808
0.0249577
0.0250363
0.0251159
0.0251993
0.0252862
0.0253723
0.025459
0.0255523
0.0256548
0.0257704
0.0259026
0.0260452
0.0261863
0.0263209
0.0264478
0.0265694
0.0266999
0.0268583
0.0270495
0.027267
0.027497
0.0277138
0.0278846
0.0279908
0.0280295
0.0280058
0.0279334
0.0278386
0.0277441
0.0276622
0.0275998
0.0275645
0.0275536
0.0275593
0.0275767
0.027604
0.0276344
0.0276631
0.0276892
0.0277114
0.0277266
0.027736
0.0277384
0.0277327
0.0277204
0.0277027
0.0276764
0.0276441
0.0276078
0.0275654
0.0275167
0.0274668
0.0274131
0.0273541
0.0272946
0.0272355
0.0271715
0.0271066
0.0270443
0.0269797
0.0269121
0.0268472
0.0267827
0.0267151
0.0266485
0.0265852
0.026521
0.026456
0.0263939
0.0263334
0.0262715
0.0262099
0.0261504
0.0260918
0.0260329
0.025976
0.0259228
0.0258709
0.025819
0.0257694
0.0257215
0.0256721
0.0256217
0.0255732
0.0255254
0.0254772
0.0254312
0.0253886
0.025346
0.0253002
0.0252502
0.0251923
0.0251211
0.0250364
0.0249419
0.02484
0.0247338
0.0246292
0.0245289
0.024431
0.0243336
0.0242358
0.0241367
0.0240362
0.0239372
0.0238436
0.0237577
0.0236806
0.0236134
0.0235569
0.0235108
0.0234755
0.0234529
0.0234443
0.0234502
0.0234707
0.0235059
0.0235537
0.023611
0.023675
0.0237421
0.0238092
0.023875
0.0239397
0.0240042
0.0240706
0.0241405
0.0242143
0.0242906
0.0243662
0.0244377
0.0245019
0.0245567
0.0246019
0.0246394
0.0246723
0.0247039
0.0247369
0.0247732
0.024814
0.02486
0.0249116
0.0249686
0.0250301
0.0250946
0.0251598
0.0252236
0.0252841
0.0253385
0.0253833
0.0254159
0.025435
0.0254404
0.0254328
0.0254147
0.0253892
0.0253589
0.0253265
0.025295
0.0252672
0.0252443
0.0252278
0.0252192
0.0252176
0.0252188
0.0252192
0.0252198
0.0252226
0.0252252
0.0252223
0.0252142
0.0252072
0.0252042
0.0251999
0.0251879
0.0251709
0.0251563
0.0251441
0.0251273
0.0251046
0.0250846
0.0250703
0.025047
0.0249976
0.0249299
0.0248749
0.024851
0.0248351
0.0247861
0.0246966
0.0246108
0.02458
0.0246003
0.0246031
0.0245202
0.0243632
0.0242321
0.0242343
0.0243743
0.0245119
0.0244538
0.0241258
0.0236585
0.0232689
0.0230057
0.0226042
0.0216582
0.0200141
0.0180282
0.0164422
0.0160102
0.0171406
0.0195794
0.0221665
0.0231406
0.0212887
0.0169823
0.0118358
0.00737657
0.00423069
0.00228968
0.0011903
0.000600866
0.000296294
0.000143144
6.78352e-05
3.15409e-05
1.43832e-05
6.42692e-06
2.80964e-06
1.19842e-06
4.96243e-07
1.97574e-07
7.40614e-08
2.48318e-08
6.47467e-09
1.99017e-09
2.65679e-09
2.58184e-09
2.06315e-09
1.55623e-09
1.15055e-09
7.97642e-10
5.68924e-10
4.21156e-10
2.74017e-10
1.71464e-10
1.31418e-10
9.32759e-11
6.44732e-11
4.30341e-11
2.25574e-11
1.62728e-11
9.27593e-12
1.19224e-11
9.8826e-12
5.83364e-12
1.40505e-12
5.70997e-12
1.90085e-12
3.17317e-13
2.61135e-12
2.13402e-12
1.00722e-12
1.53373e-12
1.58003e-12
1.57426e-12
2.22396e-13
2.79742e-12
2.41484e-12
7.6075e-13
2.39708e-12
1.14146e-12
1.04166e-12
8.30273e-13
9.83744e-13
8.98478e-13
4.39228e-13
1.04686e-12
4.14081e-13
6.10125e-13
5.39205e-13
1.5527e-13
3.79735e-13
1.23231e-13
1.49059e-13
1.03994e-13
4.49292e-14
5.02043e-14
2.73727e-14
2.75872e-14
7.43267e-15
1.0077e-14
1.58936e-14
1.30347e-14
1.02591e-14
9.31264e-15
7.75669e-15
6.35139e-15
7.24808e-15
7.25388e-15
6.76266e-15
6.46014e-15
6.20248e-15
6.56881e-15
6.65512e-15
6.85791e-15
6.36927e-15
6.0721e-15
6.45854e-15
6.58873e-15
6.2726e-15
6.00846e-15
5.78891e-15
6.07882e-15
6.44491e-15
6.1178e-15
5.89039e-15
5.67745e-15
5.35303e-15
5.76938e-15
5.77808e-15
5.57455e-15
5.22246e-15
5.28646e-15
5.37003e-15
5.08411e-15
5.08838e-15
5.05506e-15
5.13682e-15
5.1057e-15
5.20447e-15
4.98911e-15
5.06565e-15
4.59008e-15
4.63032e-15
4.63369e-15
4.49689e-15
4.54159e-15
4.53082e-15
4.53082e-15
0.04
0.0248343
0.025879
0.0245317
0.0237311
0.0237789
0.0247444
0.0240711
0.0227138
0.0227101
0.0234233
0.0231638
0.0224878
0.0225112
0.0227687
0.0227011
0.0225961
0.0227563
0.0228989
0.0229298
0.0230177
0.0231846
0.0233052
0.0233964
0.0235671
0.0237281
0.0239106
0.0240372
0.0242854
0.0243965
0.0246323
0.0246953
0.0249563
0.0249781
0.0252201
0.025222
0.0254422
0.02541
0.025577
0.0255368
0.0256577
0.0256198
0.0257148
0.0257037
0.0257795
0.0257846
0.0258429
0.0258536
0.0258924
0.0259071
0.0259383
0.0259563
0.0259821
0.0260026
0.0260312
0.0260678
0.0261202
0.0261843
0.0262582
0.0263337
0.0264046
0.0264715
0.0265388
0.0266082
0.0266829
0.0267667
0.0268579
0.0269555
0.0270629
0.0271795
0.0273014
0.0274278
0.0275569
0.027684
0.0278126
0.0279531
0.0281118
0.0282917
0.0284941
0.028706
0.028902
0.0290594
0.0291649
0.0292069
0.0291856
0.0291192
0.0290309
0.0289346
0.0288458
0.0287795
0.0287395
0.0287197
0.028719
0.0287352
0.0287611
0.0287887
0.0288171
0.0288446
0.0288677
0.0288823
0.0288901
0.0288921
0.0288855
0.0288685
0.028846
0.0288165
0.0287768
0.0287307
0.0286817
0.0286239
0.028559
0.0284939
0.0284251
0.0283484
0.0282717
0.0281962
0.0281151
0.0280316
0.0279518
0.0278702
0.0277847
0.0277018
0.0276214
0.0275382
0.0274548
0.0273753
0.0272964
0.0272157
0.0271366
0.0270598
0.0269818
0.0269028
0.0268268
0.0267533
0.02668
0.026609
0.0265426
0.0264777
0.0264113
0.0263453
0.0262797
0.0262114
0.0261413
0.0260739
0.02601
0.0259483
0.0258909
0.0258387
0.0257866
0.0257291
0.0256638
0.0255873
0.0254955
0.0253898
0.0252767
0.0251615
0.0250484
0.0249419
0.0248432
0.0247488
0.0246541
0.024557
0.0244573
0.0243561
0.0242567
0.0241641
0.0240815
0.0240094
0.0239482
0.0238982
0.0238582
0.0238277
0.0238075
0.0237988
0.0238021
0.0238176
0.0238456
0.0238846
0.0239313
0.0239824
0.0240344
0.0240841
0.0241306
0.0241753
0.0242213
0.0242719
0.0243295
0.0243952
0.0244677
0.0245432
0.0246169
0.0246845
0.0247425
0.0247887
0.024823
0.0248465
0.0248607
0.0248679
0.024871
0.0248735
0.0248785
0.0248896
0.0249094
0.0249392
0.0249785
0.025027
0.025083
0.0251428
0.0252007
0.0252514
0.0252915
0.025319
0.0253331
0.0253344
0.0253247
0.0253057
0.0252796
0.0252504
0.0252224
0.0251989
0.0251814
0.0251711
0.0251663
0.025163
0.0251583
0.025155
0.0251579
0.0251655
0.0251696
0.0251643
0.0251528
0.0251426
0.0251373
0.0251347
0.0251321
0.0251266
0.0251131
0.025089
0.0250627
0.0250495
0.0250508
0.0250431
0.0250001
0.0249266
0.0248611
0.0248346
0.0248322
0.0248083
0.0247388
0.0246505
0.0245924
0.0245798
0.0245728
0.0245194
0.02442
0.0243417
0.0243569
0.0244529
0.0245009
0.0243421
0.0239422
0.0234608
0.0231205
0.0229503
0.0226517
0.0217901
0.0202044
0.0182586
0.0166911
0.0162313
0.0172648
0.019557
0.0220188
0.0229589
0.0211662
0.016949
0.0118622
0.00742162
0.00427079
0.00231827
0.00120864
0.000611992
0.000302855
0.000146961
7.00462e-05
3.28244e-05
1.51339e-05
6.87063e-06
3.07509e-06
1.35947e-06
5.95314e-07
2.59199e-07
1.12818e-07
4.9415e-08
2.18183e-08
9.7837e-09
4.52229e-09
2.06357e-09
9.57101e-10
4.55385e-10
2.00027e-10
1.11568e-10
6.5441e-11
4.91053e-11
5.55112e-11
4.78805e-11
1.8238e-11
1.79022e-11
8.08444e-12
1.3923e-11
1.5867e-11
5.72458e-12
1.66292e-12
3.99095e-12
3.70675e-12
1.03026e-11
6.73142e-12
3.28353e-12
2.61881e-12
1.93102e-12
1.95014e-12
4.37505e-12
1.51863e-12
1.65762e-12
2.54814e-12
2.94055e-12
2.14621e-12
1.63622e-12
4.31586e-12
2.42961e-12
1.57168e-12
2.8023e-12
1.17254e-12
8.08079e-13
1.06115e-12
1.3151e-12
7.41552e-13
9.11403e-13
1.14196e-12
1.90235e-13
8.05196e-13
4.05057e-13
2.90375e-13
3.50087e-13
2.93624e-14
1.60108e-13
6.7369e-14
6.47995e-14
3.42234e-14
8.2697e-15
2.50602e-14
1.36584e-14
1.23502e-14
1.27744e-14
1.22894e-14
8.90546e-15
8.72995e-15
6.62948e-15
6.65102e-15
7.05953e-15
6.73602e-15
6.41097e-15
6.34223e-15
6.3604e-15
6.35532e-15
6.70538e-15
6.55009e-15
6.03451e-15
6.4339e-15
6.46746e-15
6.32748e-15
6.12452e-15
6.0406e-15
6.30861e-15
6.29094e-15
6.08465e-15
5.72166e-15
5.72713e-15
5.75392e-15
5.81953e-15
5.80256e-15
5.53829e-15
5.21225e-15
5.09265e-15
5.24417e-15
5.31567e-15
5.06116e-15
4.95541e-15
4.94849e-15
5.09121e-15
4.97022e-15
5.08655e-15
5.09875e-15
4.61107e-15
4.77746e-15
4.58557e-15
4.70822e-15
4.52763e-15
4.49495e-15
4.49495e-15
0.04
0.022761
0.0233102
0.0243349
0.0251123
0.0250285
0.0246447
0.0240119
0.0243825
0.0247612
0.0242227
0.0235519
0.0236845
0.0238601
0.02352
0.0232655
0.0234157
0.0235504
0.0235003
0.0235468
0.0237174
0.0238256
0.023892
0.0240311
0.0242181
0.0243514
0.0245414
0.0247186
0.0249678
0.0250746
0.0253249
0.0254014
0.0256506
0.0256592
0.0259094
0.025892
0.026103
0.0260498
0.0262239
0.0261615
0.0262873
0.0262389
0.0263411
0.0263146
0.0263931
0.0263888
0.0264449
0.0264445
0.0264801
0.0264848
0.0265083
0.026516
0.0265316
0.0265375
0.0265524
0.0265756
0.0266176
0.0266771
0.0267503
0.0268226
0.0268872
0.0269443
0.0269975
0.0270546
0.0271256
0.0272105
0.0273031
0.027401
0.0275019
0.0276027
0.0277084
0.0278247
0.02795
0.0280827
0.0282249
0.0283742
0.0285305
0.0287005
0.0288852
0.0290714
0.0292466
0.0293966
0.0295007
0.0295445
0.0295343
0.0294815
0.0293973
0.0293
0.0292126
0.0291441
0.0290956
0.0290695
0.0290676
0.0290807
0.0291016
0.0291289
0.0291596
0.0291856
0.0292069
0.029224
0.0292327
0.0292318
0.0292251
0.0292091
0.0291821
0.0291489
0.0291092
0.0290579
0.0290003
0.0289392
0.0288694
0.0287925
0.0287152
0.0286328
0.028544
0.0284559
0.0283674
0.0282736
0.02818
0.0280892
0.0279964
0.0279024
0.0278121
0.0277228
0.0276323
0.0275437
0.0274578
0.0273714
0.0272848
0.0271998
0.0271165
0.027033
0.0269501
0.0268699
0.026793
0.0267173
0.0266433
0.0265726
0.0265022
0.0264287
0.0263534
0.0262777
0.0261997
0.0261211
0.0260475
0.0259806
0.0259185
0.0258614
0.0258082
0.0257523
0.0256863
0.0256084
0.0255175
0.0254125
0.0252981
0.0251829
0.0250728
0.0249699
0.0248756
0.0247882
0.0247023
0.0246131
0.0245203
0.0244262
0.0243342
0.024249
0.0241752
0.0241147
0.0240657
0.0240264
0.0239951
0.0239695
0.0239484
0.0239327
0.0239244
0.0239249
0.0239358
0.0239583
0.023991
0.0240312
0.0240752
0.0241197
0.0241626
0.0242043
0.0242476
0.0242967
0.0243545
0.0244223
0.0244994
0.0245821
0.0246644
0.0247407
0.0248058
0.0248555
0.0248881
0.0249035
0.0249029
0.0248886
0.0248648
0.0248365
0.0248092
0.0247881
0.0247783
0.0247831
0.0248038
0.0248407
0.0248934
0.0249586
0.0250296
0.0250997
0.0251633
0.0252163
0.0252557
0.0252807
0.0252925
0.0252921
0.0252809
0.0252616
0.0252386
0.0252162
0.0251973
0.0251842
0.0251774
0.0251735
0.025168
0.0251619
0.0251602
0.0251647
0.0251693
0.0251668
0.0251568
0.0251455
0.0251381
0.0251343
0.0251311
0.0251248
0.0251111
0.0250889
0.0250666
0.0250564
0.0250565
0.0250433
0.0249932
0.0249149
0.0248509
0.024834
0.0248453
0.0248276
0.0247451
0.0246263
0.024539
0.0245205
0.0245373
0.0245225
0.0244532
0.0243817
0.0243788
0.0244352
0.0244245
0.024196
0.0237334
0.023219
0.0228924
0.0227938
0.0226275
0.0219352
0.0204955
0.0186037
0.0169714
0.0163608
0.0172274
0.0194112
0.0218703
0.0229022
0.0212298
0.0170911
0.012017
0.00754546
0.00435293
0.00236646
0.00123461
0.0006251
0.00030907
0.000149697
7.11227e-05
3.31587e-05
1.51665e-05
6.80094e-06
2.98608e-06
1.28102e-06
5.3485e-07
2.15654e-07
8.26474e-08
2.91027e-08
8.78518e-09
2.68636e-09
2.5378e-09
2.42273e-09
2.03855e-09
1.54923e-09
1.12267e-09
8.42244e-10
5.9055e-10
3.90855e-10
2.66644e-10
2.0434e-10
1.46047e-10
8.6017e-11
6.68633e-11
3.66525e-11
2.1474e-11
2.60888e-11
1.7429e-11
7.94985e-12
1.27524e-12
5.69176e-12
6.16526e-12
2.53223e-12
4.04106e-12
1.11073e-12
2.13741e-12
2.04415e-12
1.39775e-12
8.06171e-13
1.05905e-12
2.28808e-12
1.03488e-12
2.55085e-12
1.36457e-12
1.38374e-12
1.56806e-12
3.72666e-13
5.99657e-13
5.02242e-13
9.2064e-13
3.6056e-13
8.01485e-13
8.50818e-13
2.67816e-13
6.9983e-13
2.71734e-13
3.51499e-13
2.66676e-13
9.18209e-14
1.67097e-13
5.289e-14
6.02852e-14
3.58165e-14
2.05984e-14
1.08358e-14
1.38932e-14
1.47485e-14
9.22675e-15
8.64563e-15
9.61061e-15
8.30032e-15
7.35233e-15
6.28953e-15
6.93308e-15
6.90713e-15
6.90204e-15
6.64209e-15
6.10943e-15
6.69166e-15
6.40109e-15
6.93861e-15
6.62832e-15
6.1303e-15
6.16489e-15
6.57669e-15
6.31079e-15
5.92747e-15
6.27289e-15
5.96353e-15
5.94877e-15
5.7973e-15
5.53237e-15
5.7512e-15
5.74301e-15
5.76687e-15
5.90146e-15
5.57208e-15
5.4674e-15
5.02813e-15
5.02179e-15
5.42516e-15
5.13208e-15
4.73032e-15
5.50447e-15
5.3006e-15
5.1938e-15
4.87585e-15
5.08606e-15
4.76281e-15
4.58921e-15
4.49218e-15
4.78116e-15
4.71074e-15
4.69763e-15
4.69763e-15
0.04
0.0229927
0.0235868
0.0239012
0.0241434
0.0242075
0.0243965
0.0248594
0.0251503
0.0245146
0.0242162
0.0245865
0.0246112
0.0239988
0.023755
0.0239755
0.0239753
0.0237598
0.0238005
0.0239986
0.0240472
0.0240543
0.0241953
0.0243549
0.0244645
0.0245965
0.0248313
0.0249948
0.0252037
0.0253266
0.0255842
0.025634
0.0258668
0.0258814
0.0261231
0.0260769
0.0262844
0.0262249
0.0263961
0.0263258
0.0264698
0.0264261
0.0265357
0.0265095
0.0265955
0.0265847
0.026637
0.02663
0.0266589
0.0266517
0.0266668
0.0266656
0.0266725
0.0266697
0.0266759
0.0266887
0.0267227
0.0267777
0.0268468
0.0269156
0.0269768
0.027026
0.0270694
0.0271228
0.0271958
0.0272861
0.0273887
0.0274946
0.0275933
0.0276858
0.0277829
0.0278917
0.0280177
0.0281636
0.0283219
0.0284822
0.0286439
0.0288077
0.0289704
0.0291314
0.0292884
0.0294245
0.0295211
0.0295722
0.0295774
0.0295353
0.0294598
0.0293749
0.0292947
0.0292241
0.0291744
0.0291513
0.0291481
0.029157
0.0291781
0.0292069
0.0292368
0.0292629
0.0292852
0.0293027
0.0293133
0.0293129
0.0293047
0.0292902
0.0292647
0.0292282
0.0291872
0.0291374
0.0290756
0.0290092
0.0289394
0.028858
0.0287708
0.0286848
0.0285927
0.0284929
0.0283962
0.0283005
0.0281988
0.0280981
0.0280032
0.0279066
0.0278083
0.0277152
0.0276252
0.0275328
0.0274415
0.0273547
0.0272687
0.0271814
0.0270967
0.0270157
0.0269351
0.0268547
0.0267779
0.026704
0.0266296
0.0265546
0.0264811
0.0264062
0.0263267
0.0262451
0.0261649
0.026085
0.026007
0.0259363
0.0258738
0.025815
0.0257578
0.0257006
0.025637
0.0255606
0.0254714
0.0253721
0.025264
0.0251519
0.0250438
0.0249443
0.0248531
0.0247684
0.0246883
0.024609
0.0245274
0.0244455
0.0243684
0.0242997
0.0242421
0.024198
0.0241663
0.0241426
0.0241228
0.024105
0.0240871
0.0240682
0.0240508
0.0240386
0.0240345
0.0240413
0.0240611
0.0240928
0.0241334
0.0241796
0.0242288
0.0242793
0.0243316
0.0243879
0.0244511
0.0245217
0.0245983
0.0246778
0.024755
0.0248242
0.0248802
0.0249192
0.0249391
0.0249402
0.0249239
0.0248929
0.0248513
0.024804
0.0247564
0.024714
0.0246827
0.0246674
0.0246707
0.0246938
0.0247374
0.0247989
0.0248729
0.0249525
0.025032
0.0251057
0.0251684
0.0252168
0.0252506
0.02527
0.0252756
0.0252696
0.025256
0.0252387
0.0252203
0.0252043
0.0251932
0.0251859
0.0251784
0.0251698
0.0251646
0.0251657
0.0251687
0.0251657
0.0251545
0.025141
0.0251323
0.0251292
0.0251271
0.0251203
0.0251052
0.0250833
0.0250636
0.0250556
0.0250552
0.0250399
0.0249887
0.0249112
0.0248489
0.0248349
0.0248516
0.0248396
0.0247555
0.0246228
0.0245165
0.0244896
0.0245188
0.024532
0.0244909
0.024436
0.0244314
0.0244591
0.0243843
0.0240633
0.0235108
0.0229505
0.0226495
0.0226484
0.0226292
0.0220949
0.0207778
0.0189371
0.0172779
0.0165831
0.017337
0.0194055
0.0217775
0.0227814
0.0211416
0.0170602
0.0120285
0.00757259
0.00437864
0.00238523
0.00124676
0.000632478
0.000313414
0.000152221
7.25875e-05
3.40153e-05
1.56737e-05
7.10627e-06
3.17324e-06
1.3976e-06
6.08547e-07
2.62873e-07
1.13093e-07
4.86514e-08
2.11479e-08
9.32295e-09
4.09186e-09
1.8718e-09
8.65506e-10
4.23098e-10
2.49522e-10
1.57329e-10
1.2839e-10
1.21187e-10
7.1413e-11
2.61876e-11
4.23061e-11
3.06815e-11
2.28159e-11
1.95098e-11
8.12604e-12
3.10051e-12
3.60526e-12
9.04937e-12
5.55529e-12
1.24915e-11
2.58679e-12
4.6369e-12
2.88014e-12
2.67316e-12
2.37596e-12
2.91837e-12
1.09847e-12
1.76137e-12
2.04648e-12
3.49217e-12
2.97811e-12
2.23918e-12
4.5409e-12
1.94e-12
1.73285e-12
2.22684e-12
1.1061e-12
3.44709e-13
1.00702e-12
1.6703e-12
4.75738e-13
1.24555e-12
1.17559e-12
2.82471e-13
9.04738e-13
2.97124e-13
4.05351e-13
3.11288e-13
7.79704e-14
1.84225e-13
2.37923e-14
5.53429e-14
3.89451e-14
2.27317e-14
9.80999e-15
8.66339e-15
1.25942e-14
7.75383e-15
7.36901e-15
7.65413e-15
7.53188e-15
5.64552e-15
6.88067e-15
7.13136e-15
6.81551e-15
7.13195e-15
6.38101e-15
6.56839e-15
6.52059e-15
6.50648e-15