# vtk DataFile Version 3.0
LBM output step 820
ASCII
DATASET STRUCTURED_POINTS
DIMENSIONS 400 100 1
ORIGIN 0 0 0
SPACING 1 1 1
POINT_DATA 40000
SCALARS velocity_magnitude double 1
LOOKUP_TABLE default
0
0
0
0
0
0
0
0
0
0
0
0
0
0
0
0
0
0
0
0
0
0
0
0
0
0
0
0
0
0
0
0
0
0
0
0
0
0
0
0
0
0
0
0
0
0
0
0
0
0
0
0
0
0
0
0
0
0
0
0
0
0
0
0
0
0
0
0
0
0
0
0
0
0
0
0
0
0
0
0
0
0
0
0
0
0
0
0
0
0
0
0
0
0
0
0
0
0
0
0
0
0
0
0
0
0
0
0
0
0
0
0
0
0
0
0
0
0
0
0
0
0
0
0
0
0
0
0
0
0
0
0
0
0
0
0
0
0
0
0
0
0
0
0
0
0
0
0
0
0
0
0
0
0
0
0
0
0
0
0
0
0
0
0
0
0
0
0
0
0
0
0
0
0
0
0
0
0
0
0
0
0
0
0
0
0
0
0
0
0
0
0
0
0
0
0
0
0
0
0
0
0
0
0
0
0
0
0
0
0
0
0
0
0
0
0
0
0
0
0
0
0
0
0
0
0
0
0
0
0
0
0
0
0
0
0
0
0
0
0
0
0
0
0
0
0
0
0
0
0
0
0
0
0
0
0
0
0
0
0
0
0
0
0
0
0
0
0
0
0
0
0
0
0
0
0
0
0
0
0
0
0
0
0
0
0
0
0
0
0
0
0
0
0
0
0
0
0
0
0
0
0
0
0
0
0
0
0
0
0
0
0
0
0
0
0
0
0
0
0
0
0
0
0
0
0
0
0
0
0
0
0
0
0
0
0
0
0
0
0
0
0
0
0
0
0
0
0
0
0
0
0
0
0
0
0
0
0
0
0
0
0
0
0
0
0
0
0
0
0
0
0
0
0
0
0
0
0
0
0
0
0
0
0
0
0
0
0
0
0
0
0
0
0
0
0
0
0
0
0
0.04
0.0141329
0.00870333
0.0136516
0.0161273
0.0157485
0.0127973
0.0122775
0.0123366
0.0123808
0.0120235
0.0120077
0.0117214
0.0115204
0.0113641
0.0113288
0.0111411
0.01102
0.0109273
0.0108747
0.0107717
0.0107253
0.0106745
0.0106238
0.0105501
0.0105023
0.0104354
0.010362
0.0102798
0.0102074
0.0101203
0.010032
0.0099444
0.00985882
0.00976842
0.00967771
0.00959295
0.00950142
0.00941458
0.00931848
0.00923328
0.00912901
0.00903987
0.00892827
0.0088375
0.00871794
0.00862705
0.00850574
0.00841854
0.00829981
0.00822024
0.00810967
0.00803864
0.00793772
0.00787446
0.00778388
0.0077263
0.0076453
0.00759327
0.00752292
0.00747566
0.00741573
0.00737491
0.00732518
0.00728978
0.00725081
0.00722305
0.0071938
0.00717472
0.00715839
0.00714999
0.00714573
0.00714997
0.00715824
0.00717103
0.00718743
0.00720749
0.0072281
0.00725021
0.00727443
0.00729963
0.00732439
0.00735045
0.00737753
0.00740403
0.00742972
0.00745626
0.00748218
0.00750583
0.00752685
0.00754554
0.00755938
0.00756746
0.00757041
0.00756924
0.00756307
0.00755333
0.00754167
0.00752884
0.00751429
0.00749942
0.0074842
0.00746799
0.00745042
0.00743218
0.00741206
0.00738991
0.00736616
0.00734094
0.00731345
0.00728477
0.00725541
0.00722532
0.00719467
0.0071648
0.00713566
0.00710718
0.00708001
0.00705484
0.00703084
0.00700805
0.00698706
0.00696746
0.00694805
0.0069295
0.00691214
0.0068947
0.00687697
0.00686051
0.00684477
0.00682867
0.00681357
0.0068005
0.00678778
0.00677542
0.00676522
0.00675657
0.00674807
0.00674128
0.00673733
0.00673476
0.00673342
0.00673493
0.0067386
0.0067426
0.00674733
0.00675332
0.00675901
0.00676368
0.00676851
0.00677371
0.00677833
0.00678261
0.00678725
0.00679123
0.00679306
0.00679246
0.00678897
0.0067813
0.00676905
0.00675302
0.00673373
0.00671164
0.0066883
0.00666554
0.00664457
0.00662654
0.00661286
0.0066044
0.00660129
0.00660378
0.00661221
0.00662631
0.00664543
0.00666889
0.00669562
0.00672403
0.00675266
0.0067807
0.0068078
0.00683409
0.0068603
0.00688737
0.00691577
0.00694536
0.00697555
0.00700527
0.00703309
0.00705769
0.00707811
0.0070938
0.00710463
0.00711096
0.00711355
0.0071134
0.00711164
0.0071095
0.00710807
0.00710819
0.00711042
0.00711489
0.00712124
0.00712864
0.0071359
0.00714164
0.00714443
0.00714305
0.00713666
0.00712474
0.00710712
0.00708395
0.00705563
0.00702274
0.006986
0.00694626
0.00690441
0.00686144
0.00681833
0.00677608
0.0067357
0.0066983
0.0066651
0.00663742
0.00661639
0.0066028
0.00659683
0.00659807
0.00660568
0.00661854
0.00663554
0.0066557
0.00667835
0.00670317
0.00673013
0.00675928
0.00679063
0.00682414
0.00685988
0.00689815
0.00693949
0.00698425
0.0070323
0.00708276
0.00713414
0.00718468
0.0072326
0.00727649
0.0073156
0.00735019
0.00738177
0.00741273
0.00744555
0.00748171
0.00752094
0.00756151
0.00760112
0.00763824
0.00767271
0.00770573
0.00773912
0.00777466
0.00781373
0.00785729
0.00790581
0.00795893
0.00801506
0.00807139
0.00812449
0.00817159
0.00821153
0.00824511
0.00827429
0.00830098
0.00832601
0.00834923
0.0083704
0.00839056
0.00841266
0.00844108
0.0084799
0.00853091
0.00859221
0.00865832
0.00872184
0.00877613
0.00881778
0.00884795
0.00887196
0.00889737
0.00893124
0.00897768
0.00903648
0.0091031
0.00916988
0.00922796
0.00926937
0.0092886
0.00928348
0.00925527
0.00920804
0.00914768
0.00908074
0.00901341
0.00895081
0.00889657
0.00885286
0.00882071
0.00880049
0.00879248
0.00879745
0.00881719
0.0088551
0.00891675
0.00901062
0.0091487
0.00934665
0.00962292
0.00999605
0.0104796
0.0110749
0.011764
0.0125037
0.0132271
0.0138527
0.0143056
0.0145451
0.0145906
0.014524
0.0144545
0.0144554
0.0145196
0.014574
0.0145498
0.0144442
0.014319
0.0142386
0.014212
0.0141931
0.0141288
0.0140036
0.0138467
0.013704
0.0136022
0.013534
0.0134746
0.0134101
0.0133478
0.0133067
0.0133023
0.0133357
0.0133946
0.0134667
0.0135484
0.0136403
0.0137389
0.0138351
0.0139166
0.0139748
0.0140097
0.0140282
0.0140391
0.0140501
0.0140677
0.0140977
0.014144
0.0142066
0.0142805
0.0143576
0.0144295
0.0144893
0.0145307
0.0145475
0.0145337
0.0144845
0.0143975
0.0142732
0.014115
0.0139293
0.0137251
0.013512
0.0132991
0.0130939
0.0129025
0.0127305
0.0125829
0.0124638
0.0123759
0.0123198
0.0122947
0.0122984
0.0123278
0.012379
0.0124493
0.0125364
0.0126381
0.0127524
0.0128825
0.0130244
0.0131711
0.0131711
0.04
0.023003
0.0244722
0.0219202
0.0150511
0.0145224
0.0176553
0.0183221
0.0167356
0.0161721
0.0163183
0.0161691
0.0158294
0.0157793
0.0156268
0.0153744
0.0152229
0.0152098
0.0151102
0.0150172
0.0150018
0.0150169
0.0149826
0.0149687
0.0149706
0.0149501
0.0148991
0.0148604
0.0148163
0.0147534
0.0146856
0.0146278
0.0145662
0.0144967
0.0144362
0.0143765
0.0143199
0.0142541
0.0142047
0.0141398
0.0140898
0.0140165
0.0139707
0.0138891
0.0138422
0.0137526
0.0137107
0.0136154
0.0135794
0.0134851
0.0134598
0.0133703
0.0133553
0.0132752
0.0132703
0.0131999
0.013202
0.013145
0.0131534
0.0131092
0.0131236
0.0130959
0.0131148
0.0131014
0.0131278
0.0131298
0.0131606
0.0131782
0.0132192
0.0132504
0.0133003
0.0133493
0.0134103
0.0134697
0.0135405
0.0136116
0.0136852
0.0137591
0.013838
0.0139148
0.013991
0.0140687
0.0141477
0.0142227
0.0142968
0.0143716
0.014444
0.0145111
0.014576
0.0146377
0.014692
0.0147377
0.0147776
0.0148094
0.0148319
0.0148469
0.0148567
0.01486
0.0148582
0.0148526
0.0148429
0.014829
0.0148117
0.0147895
0.0147629
0.0147326
0.0146972
0.0146563
0.0146128
0.0145653
0.0145129
0.0144588
0.0144043
0.0143461
0.0142872
0.0142307
0.0141736
0.0141155
0.0140612
0.0140093
0.0139565
0.0139058
0.0138594
0.0138128
0.0137661
0.013723
0.0136817
0.0136395
0.0135991
0.0135622
0.0135261
0.0134905
0.0134585
0.0134295
0.0134013
0.0133751
0.0133528
0.0133326
0.0133135
0.0132976
0.0132856
0.0132753
0.0132669
0.0132618
0.0132589
0.0132563
0.0132545
0.0132543
0.013254
0.0132532
0.0132532
0.013254
0.0132546
0.0132547
0.0132547
0.0132537
0.0132499
0.0132431
0.0132333
0.0132198
0.0132026
0.0131828
0.0131618
0.0131403
0.0131198
0.0131022
0.0130887
0.01308
0.013077
0.0130803
0.0130898
0.0131053
0.0131267
0.0131536
0.0131847
0.0132189
0.0132551
0.013292
0.0133284
0.0133642
0.0133994
0.0134346
0.0134702
0.0135066
0.0135438
0.0135809
0.0136168
0.0136505
0.0136806
0.0137063
0.0137272
0.0137431
0.0137546
0.0137622
0.013767
0.01377
0.0137723
0.013775
0.0137787
0.0137842
0.0137916
0.0138006
0.0138106
0.0138205
0.0138291
0.0138351
0.0138372
0.0138345
0.0138265
0.0138128
0.0137936
0.0137692
0.0137403
0.0137076
0.0136721
0.0136348
0.013597
0.0135598
0.0135245
0.0134922
0.0134642
0.0134417
0.0134259
0.0134179
0.0134182
0.0134268
0.0134434
0.0134669
0.0134962
0.0135301
0.0135675
0.0136076
0.0136499
0.0136942
0.0137405
0.0137889
0.0138394
0.0138923
0.0139479
0.0140066
0.0140687
0.0141339
0.0142014
0.0142697
0.0143373
0.0144025
0.0144641
0.0145215
0.0145748
0.0146253
0.014675
0.0147261
0.0147796
0.0148354
0.0148916
0.0149462
0.0149976
0.0150458
0.0150918
0.0151373
0.0151841
0.0152336
0.0152866
0.0153437
0.0154046
0.0154678
0.0155308
0.0155904
0.0156441
0.0156909
0.0157319
0.0157689
0.0158039
0.0158379
0.015871
0.015903
0.0159353
0.0159706
0.0160132
0.0160666
0.0161321
0.0162076
0.0162871
0.0163634
0.0164299
0.0164835
0.0165253
0.0165607
0.0165969
0.0166406
0.0166955
0.0167609
0.016832
0.0169011
0.0169594
0.016999
0.0170149
0.0170053
0.016972
0.0169199
0.0168553
0.0167852
0.0167163
0.0166539
0.0166016
0.0165617
0.0165351
0.016522
0.0165226
0.0165375
0.0165683
0.0166182
0.0166928
0.0168005
0.0169536
0.0171684
0.0174644
0.0178621
0.0183776
0.0190152
0.0197596
0.0205698
0.0213791
0.0221047
0.0226676
0.0230219
0.0231815
0.0232248
0.0232605
0.0233627
0.0235238
0.0236687
0.0237261
0.0236938
0.0236365
0.0236213
0.0236567
0.0236947
0.0236813
0.0236026
0.0234893
0.0233875
0.0233233
0.0232893
0.023261
0.0232253
0.0231912
0.0231788
0.0232036
0.0232661
0.0233539
0.0234548
0.0235655
0.0236865
0.0238139
0.0239382
0.0240468
0.0241318
0.0241938
0.0242399
0.0242781
0.0243152
0.0243564
0.0244066
0.0244694
0.0245441
0.0246256
0.0247054
0.0247757
0.0248301
0.0248635
0.0248708
0.0248471
0.024789
0.0246952
0.0245671
0.0244084
0.0242255
0.0240271
0.0238227
0.0236212
0.0234302
0.023256
0.0231045
0.0229807
0.0228882
0.0228291
0.0228037
0.0228105
0.0228465
0.0229084
0.0229923
0.0230941
0.0232106
0.0233406
0.0234813
0.0236289
0.02378
0.0239297
0.0239297
0.04
0.0240352
0.0220839
0.0190486
0.020227
0.022344
0.02137
0.0197715
0.0200222
0.0205664
0.0200349
0.0194594
0.0193643
0.0192841
0.0189671
0.0187883
0.0187049
0.018576
0.0184388
0.0184307
0.0184361
0.0184202
0.0184281
0.0184817
0.0185024
0.0185025
0.0185064
0.0185078
0.0184787
0.0184459
0.0184183
0.0183851
0.0183432
0.0183075
0.0182786
0.0182431
0.0182123
0.0181809
0.0181587
0.0181214
0.0181007
0.0180613
0.0180436
0.0179936
0.0179799
0.0179229
0.0179143
0.0178496
0.0178514
0.017784
0.0177984
0.0177319
0.0177609
0.0176997
0.0177414
0.0176873
0.0177403
0.0176978
0.0177582
0.0177292
0.0177975
0.0177847
0.0178565
0.0178621
0.0179393
0.0179611
0.0180416
0.018083
0.018168
0.0182247
0.0183176
0.0183921
0.0184898
0.0185778
0.0186837
0.0187801
0.0188865
0.0189899
0.0190983
0.019201
0.019308
0.019414
0.0195189
0.0196206
0.0197244
0.0198258
0.0199231
0.0200176
0.0201107
0.0201972
0.0202759
0.0203482
0.0204134
0.0204676
0.0205122
0.0205495
0.0205791
0.0205995
0.0206134
0.0206224
0.0206251
0.0206201
0.0206105
0.0205952
0.0205716
0.0205411
0.0205061
0.0204632
0.0204128
0.0203587
0.0203002
0.0202346
0.0201665
0.0200974
0.0200242
0.0199485
0.0198748
0.0198004
0.0197243
0.0196506
0.0195794
0.0195073
0.0194365
0.0193692
0.0193027
0.0192362
0.0191725
0.0191114
0.0190506
0.0189916
0.0189363
0.0188832
0.0188317
0.0187838
0.0187398
0.018698
0.0186586
0.0186233
0.0185914
0.0185614
0.0185345
0.0185118
0.0184915
0.0184732
0.0184578
0.0184451
0.0184333
0.0184226
0.0184138
0.0184061
0.0183987
0.0183922
0.0183869
0.0183817
0.0183759
0.0183695
0.0183618
0.0183515
0.0183383
0.0183222
0.0183035
0.0182823
0.0182597
0.0182373
0.0182161
0.0181973
0.0181824
0.0181725
0.0181682
0.0181698
0.0181777
0.0181917
0.018211
0.0182352
0.0182637
0.0182953
0.018329
0.0183639
0.018399
0.0184339
0.0184683
0.0185026
0.0185371
0.0185721
0.0186076
0.0186433
0.0186786
0.0187124
0.0187439
0.0187722
0.0187969
0.0188176
0.0188345
0.018848
0.0188584
0.0188664
0.0188727
0.0188782
0.0188835
0.0188894
0.0188963
0.0189043
0.0189133
0.0189228
0.0189321
0.0189401
0.0189459
0.0189484
0.0189469
0.0189409
0.01893
0.0189143
0.0188939
0.0188692
0.0188411
0.0188104
0.0187783
0.0187461
0.0187152
0.018687
0.0186629
0.018644
0.0186315
0.0186262
0.0186285
0.0186385
0.0186558
0.0186796
0.0187089
0.0187425
0.0187793
0.0188183
0.0188587
0.0189003
0.018943
0.0189869
0.0190325
0.0190802
0.0191304
0.0191836
0.01924
0.0192994
0.0193611
0.0194242
0.0194876
0.0195503
0.0196112
0.0196698
0.0197259
0.0197804
0.0198345
0.0198898
0.0199469
0.0200056
0.0200643
0.0201211
0.0201747
0.0202244
0.0202711
0.0203159
0.0203603
0.0204055
0.0204524
0.0205018
0.0205534
0.0206064
0.0206587
0.0207076
0.020751
0.020788
0.0208193
0.0208466
0.0208718
0.0208959
0.0209191
0.0209418
0.0209654
0.0209929
0.0210283
0.0210752
0.0211347
0.0212048
0.0212801
0.0213534
0.0214186
0.0214724
0.0215157
0.021553
0.0215908
0.0216352
0.0216898
0.0217541
0.0218238
0.0218914
0.0219486
0.0219876
0.0220032
0.0219934
0.0219595
0.021906
0.0218391
0.0217656
0.0216922
0.0216244
0.021566
0.0215194
0.021486
0.021466
0.0214599
0.0214681
0.0214921
0.0215349
0.0216017
0.0217004
0.0218428
0.0220453
0.0223274
0.0227099
0.0232095
0.0238311
0.0245597
0.025354
0.0261466
0.0268525
0.0273912
0.0277156
0.0278414
0.0278525
0.0278644
0.027956
0.0281177
0.0282669
0.0283249
0.028289
0.0282301
0.028221
0.0282704
0.0283249
0.0283266
0.0282611
0.0281612
0.0280743
0.0280269
0.0280107
0.0279999
0.0279807
0.0279623
0.0279656
0.0280059
0.0280828
0.0281824
0.0282915
0.0284059
0.0285263
0.0286496
0.0287677
0.0288708
0.0289531
0.0290173
0.0290711
0.0291217
0.0291739
0.0292305
0.0292943
0.0293665
0.0294454
0.029525
0.0295975
0.0296567
0.0296987
0.0297205
0.0297187
0.0296898
0.0296315
0.0295435
0.0294275
0.0292865
0.0291254
0.0289508
0.0287698
0.0285894
0.028416
0.0282553
0.0281127
0.0279933
0.0279007
0.0278366
0.0278014
0.0277942
0.0278126
0.0278535
0.0279139
0.0279911
0.0280812
0.028183
0.0282976
0.0284218
0.0285524
0.028691
0.028691
0.04
0.0258675
0.0271486
0.0270696
0.0267035
0.0240677
0.0225373
0.0235445
0.0242158
0.0230753
0.0222104
0.022423
0.0224368
0.0219297
0.0216046
0.021587
0.0214117
0.0211792
0.0210993
0.0210949
0.0210145
0.0209948
0.0210546
0.0211089
0.0211232
0.0211736
0.0212274
0.0212479
0.0212491
0.0212671
0.0212729
0.0212625
0.0212553
0.0212579
0.0212522
0.0212422
0.0212414
0.0212388
0.0212347
0.0212243
0.0212263
0.021212
0.0212108
0.021189
0.0211933
0.0211614
0.0211693
0.0211303
0.0211483
0.0211018
0.0211333
0.0210837
0.0211317
0.0210814
0.0211459
0.0210985
0.0211788
0.0211378
0.0212302
0.0212012
0.0213038
0.0212888
0.0213981
0.0214027
0.0215153
0.0215382
0.0216548
0.0216981
0.021815
0.0218783
0.0219994
0.022079
0.0222021
0.0222991
0.0224238
0.0225289
0.0226554
0.0227686
0.0228909
0.023006
0.0231296
0.0232452
0.0233634
0.0234805
0.0235993
0.023712
0.0238252
0.0239374
0.0240454
0.0241459
0.0242432
0.0243342
0.024415
0.0244861
0.0245505
0.024605
0.0246495
0.0246867
0.0247171
0.0247391
0.0247547
0.0247635
0.0247641
0.0247574
0.0247437
0.0247202
0.0246888
0.0246509
0.0246041
0.024549
0.0244897
0.0244239
0.0243507
0.0242749
0.0241966
0.0241124
0.0240264
0.0239414
0.0238537
0.023764
0.0236771
0.0235907
0.0235028
0.0234167
0.0233334
0.0232499
0.0231668
0.0230868
0.023009
0.0229319
0.0228573
0.0227865
0.0227186
0.0226529
0.0225911
0.0225338
0.0224794
0.0224276
0.02238
0.0223363
0.0222947
0.0222559
0.0222212
0.0221895
0.0221594
0.022132
0.022108
0.0220854
0.022064
0.0220449
0.0220277
0.0220108
0.0219945
0.0219793
0.0219643
0.021948
0.0219306
0.021912
0.021891
0.0218671
0.0218411
0.0218138
0.0217852
0.0217566
0.0217296
0.0217053
0.0216844
0.0216683
0.0216581
0.0216538
0.0216553
0.0216628
0.0216755
0.0216925
0.0217132
0.0217373
0.0217638
0.0217919
0.0218211
0.0218507
0.0218801
0.0219092
0.0219383
0.0219675
0.0219969
0.0220266
0.0220563
0.0220856
0.0221135
0.0221396
0.0221632
0.0221839
0.0222014
0.0222155
0.0222264
0.022234
0.0222388
0.0222411
0.0222416
0.022241
0.0222402
0.0222399
0.0222404
0.022242
0.0222445
0.0222472
0.0222495
0.0222504
0.0222487
0.0222438
0.0222348
0.0222212
0.0222027
0.0221793
0.0221514
0.0221199
0.0220857
0.0220505
0.0220159
0.0219834
0.0219547
0.021931
0.0219133
0.0219022
0.0218981
0.021901
0.0219106
0.0219263
0.0219473
0.0219725
0.0220007
0.0220307
0.0220615
0.0220927
0.0221243
0.0221565
0.0221902
0.022226
0.0222647
0.0223066
0.0223519
0.0224002
0.0224512
0.0225043
0.0225591
0.0226148
0.022671
0.0227271
0.0227827
0.0228376
0.0228926
0.0229481
0.0230048
0.0230622
0.0231192
0.023174
0.0232253
0.0232724
0.0233152
0.0233546
0.0233914
0.0234267
0.0234613
0.0234959
0.023531
0.023566
0.0235996
0.0236299
0.0236551
0.0236745
0.0236886
0.0236988
0.0237069
0.023714
0.0237207
0.0237277
0.0237369
0.0237513
0.0237747
0.0238105
0.0238597
0.0239204
0.0239874
0.0240544
0.0241152
0.0241668
0.0242093
0.0242466
0.0242843
0.0243278
0.0243802
0.0244411
0.0245065
0.0245693
0.0246213
0.0246548
0.0246645
0.0246479
0.0246064
0.0245439
0.0244668
0.0243819
0.0242959
0.0242145
0.024142
0.0240812
0.0240335
0.0239998
0.0239804
0.0239759
0.0239875
0.024018
0.024072
0.0241573
0.0242856
0.0244731
0.0247399
0.0251078
0.0255942
0.026205
0.0269253
0.0277134
0.0285
0.029198
0.0297238
0.0300288
0.0301293
0.0301132
0.0301025
0.0301803
0.0303347
0.0304746
0.0305139
0.0304502
0.0303624
0.0303318
0.0303677
0.0304104
0.030396
0.0303099
0.0301885
0.0300832
0.0300219
0.0299947
0.0299722
0.0299382
0.0299034
0.0298923
0.0299216
0.029989
0.0300775
0.0301709
0.0302645
0.0303601
0.0304575
0.0305507
0.0306309
0.0306939
0.0307437
0.0307887
0.0308362
0.0308892
0.0309474
0.0310098
0.0310749
0.0311394
0.0311974
0.0312425
0.0312704
0.0312791
0.0312675
0.031234
0.0311766
0.0310948
0.0309898
0.030864
0.0307204
0.0305622
0.0303936
0.0302193
0.0300442
0.0298733
0.0297119
0.0295654
0.0294384
0.0293343
0.0292549
0.0292006
0.0291707
0.0291641
0.0291784
0.0292107
0.0292592
0.0293224
0.0293982
0.0294857
0.0295851
0.0297007
0.0298324
0.0298324
0.04
0.0266665
0.0278166
0.0264837
0.025688
0.0257672
0.0267605
0.0260764
0.0246275
0.0244862
0.0251276
0.0247952
0.0240043
0.0238291
0.0239059
0.0236324
0.0232889
0.0232038
0.0231274
0.0229624
0.022872
0.0229013
0.0228982
0.022897
0.0229566
0.023039
0.023077
0.0231193
0.0231768
0.0232192
0.0232363
0.0232643
0.0232949
0.0233132
0.0233263
0.0233487
0.0233683
0.0233787
0.0233921
0.023405
0.0234165
0.0234175
0.0234291
0.0234263
0.0234356
0.0234223
0.0234374
0.0234156
0.0234367
0.0234068
0.0234419
0.0234042
0.0234561
0.0234135
0.0234849
0.0234402
0.0235313
0.0234881
0.0235969
0.0235613
0.0236833
0.0236597
0.0237927
0.0237858
0.0239233
0.0239373
0.0240776
0.0241112
0.0242517
0.0243079
0.0244464
0.0245212
0.0246603
0.0247513
0.0248866
0.0249908
0.025125
0.0252346
0.0253647
0.0254813
0.0256075
0.0257232
0.0258489
0.0259687
0.0260898
0.0262081
0.0263305
0.0264473
0.0265609
0.0266717
0.0267796
0.0268781
0.0269692
0.0270538
0.0271302
0.0271956
0.0272526
0.027303
0.0273457
0.0273788
0.0274053
0.0274259
0.0274374
0.0274389
0.027434
0.0274204
0.027395
0.0273613
0.0273217
0.0272711
0.0272114
0.0271479
0.0270776
0.0269978
0.0269151
0.0268299
0.0267377
0.0266419
0.0265472
0.0264497
0.0263488
0.0262495
0.0261515
0.0260513
0.0259516
0.0258547
0.0257584
0.0256617
0.0255676
0.0254766
0.0253869
0.0252992
0.0252159
0.0251365
0.0250595
0.0249862
0.0249179
0.024853
0.0247901
0.0247312
0.0246764
0.0246237
0.0245732
0.0245268
0.0244836
0.024442
0.0244031
0.0243678
0.0243346
0.0243025
0.0242726
0.0242449
0.0242176
0.0241902
0.0241636
0.0241372
0.0241093
0.02408
0.0240496
0.0240176
0.0239833
0.0239479
0.0239125
0.0238773
0.0238432
0.023812
0.0237847
0.0237616
0.0237438
0.0237321
0.0237262
0.0237252
0.0237289
0.0237368
0.023748
0.0237619
0.0237786
0.0237975
0.0238178
0.023839
0.0238606
0.0238821
0.0239031
0.0239238
0.0239447
0.0239658
0.0239873
0.024009
0.0240307
0.0240516
0.0240713
0.0240892
0.0241046
0.0241168
0.0241254
0.02413
0.0241304
0.0241268
0.0241197
0.02411
0.0240988
0.0240873
0.0240766
0.0240676
0.0240607
0.024056
0.0240528
0.0240504
0.0240475
0.0240431
0.0240357
0.0240244
0.0240083
0.0239868
0.0239601
0.0239285
0.0238931
0.0238554
0.0238173
0.0237805
0.0237468
0.0237175
0.0236936
0.0236756
0.0236639
0.0236584
0.023659
0.0236652
0.0236763
0.0236914
0.0237093
0.0237286
0.0237485
0.0237681
0.0237875
0.0238073
0.0238286
0.0238523
0.0238793
0.02391
0.0239443
0.023982
0.0240227
0.0240663
0.0241126
0.0241615
0.0242126
0.0242654
0.0243192
0.0243735
0.0244279
0.0244825
0.024537
0.0245913
0.0246446
0.0246956
0.0247431
0.0247862
0.0248244
0.0248576
0.0248862
0.0249108
0.0249323
0.0249514
0.0249687
0.0249844
0.0249978
0.0250078
0.0250134
0.0250139
0.0250098
0.0250022
0.0249925
0.0249819
0.0249713
0.024962
0.024956
0.0249566
0.0249675
0.0249917
0.02503
0.0250806
0.0251385
0.025198
0.0252535
0.0253021
0.0253439
0.0253819
0.0254208
0.0254652
0.0255175
0.025577
0.0256397
0.0256989
0.0257467
0.0257755
0.0257801
0.0257578
0.0257099
0.0256402
0.0255546
0.0254602
0.0253636
0.0252707
0.025186
0.0251127
0.0250527
0.0250069
0.0249758
0.02496
0.0249606
0.0249797
0.0250219
0.0250944
0.0252089
0.0253818
0.0256337
0.0259873
0.0264614
0.0270627
0.0277774
0.0285633
0.0293499
0.0300471
0.0305677
0.0308597
0.0309388
0.0308962
0.0308607
0.0309218
0.0310682
0.0312037
0.031235
0.0311567
0.0310511
0.0310048
0.0310292
0.0310634
0.0310415
0.0309484
0.0308203
0.0307079
0.0306388
0.0306035
0.0305737
0.0305335
0.0304938
0.0304779
0.030501
0.0305592
0.0306355
0.0307142
0.0307908
0.030867
0.0309425
0.0310122
0.03107
0.0311145
0.0311522
0.0311918
0.0312387
0.0312928
0.0313509
0.0314098
0.0314667
0.0315174
0.0315556
0.0315754
0.0315733
0.0315495
0.031505
0.0314408
0.0313571
0.0312554
0.0311383
0.0310089
0.0308697
0.0307228
0.0305702
0.030414
0.0302568
0.0301018
0.0299533
0.029816
0.0296941
0.0295905
0.029507
0.0294441
0.0294016
0.0293788
0.0293749
0.0293879
0.0294161
0.0294596
0.029518
0.0295913
0.0296796
0.0297841
0.0299063
0.0299063
0.04
0.0246419
0.0252371
0.0264174
0.0271569
0.0270117
0.0266342
0.0259663
0.0262671
0.0266101
0.0260631
0.025368
0.0254681
0.0256062
0.0252078
0.0248052
0.0247704
0.0247118
0.0244508
0.0242782
0.0242507
0.0241946
0.0241116
0.0241296
0.0241901
0.0242224
0.0242608
0.0243411
0.0244061
0.0244461
0.0244933
0.0245513
0.0245895
0.0246207
0.0246598
0.0246974
0.0247219
0.0247463
0.0247738
0.0247934
0.0248081
0.0248216
0.0248377
0.0248414
0.0248527
0.0248515
0.024865
0.024853
0.0248727
0.0248532
0.0248834
0.0248541
0.0249019
0.0248641
0.0249327
0.0248894
0.0249806
0.0249346
0.0250482
0.0250045
0.0251355
0.0251019
0.025247
0.025227
0.0253804
0.0253811
0.0255361
0.0255577
0.0257132
0.0257565
0.0259072
0.0259724
0.0261192
0.0261999
0.0263425
0.0264386
0.026574
0.0266781
0.0268113
0.0269206
0.0270459
0.0271607
0.0272864
0.027401
0.0275237
0.0276446
0.0277667
0.0278825
0.0280014
0.028117
0.0282264
0.0283288
0.028429
0.0285204
0.0286013
0.0286751
0.028743
0.0288
0.0288489
0.0288925
0.0289278
0.0289537
0.0289736
0.0289845
0.0289844
0.0289762
0.0289596
0.0289304
0.0288928
0.0288484
0.0287933
0.0287289
0.0286601
0.0285832
0.0284973
0.028408
0.0283146
0.0282137
0.0281103
0.0280065
0.0278988
0.0277886
0.0276801
0.0275713
0.0274608
0.0273514
0.0272442
0.0271371
0.0270308
0.0269272
0.0268265
0.0267279
0.026632
0.0265404
0.0264532
0.0263688
0.026288
0.0262119
0.0261393
0.0260685
0.026001
0.0259376
0.0258763
0.0258169
0.0257614
0.0257095
0.0256594
0.0256119
0.0255681
0.0255268
0.0254863
0.0254476
0.0254109
0.0253745
0.0253377
0.0253015
0.0252655
0.0252281
0.0251895
0.0251504
0.0251103
0.0250689
0.0250276
0.0249874
0.0249485
0.0249117
0.0248785
0.02485
0.0248262
0.0248077
0.0247949
0.0247868
0.0247825
0.0247816
0.0247839
0.0247887
0.0247962
0.0248064
0.0248189
0.0248326
0.0248469
0.0248612
0.0248748
0.0248878
0.0249007
0.024914
0.024928
0.024943
0.024959
0.0249756
0.0249919
0.0250073
0.0250208
0.0250313
0.0250379
0.0250396
0.0250361
0.025027
0.0250129
0.0249948
0.0249741
0.0249523
0.0249314
0.0249128
0.0248975
0.0248861
0.0248785
0.0248739
0.0248712
0.0248688
0.0248651
0.0248585
0.0248475
0.024831
0.0248085
0.0247801
0.0247465
0.0247093
0.0246703
0.0246314
0.0245945
0.024561
0.024532
0.0245078
0.024489
0.0244757
0.0244677
0.0244648
0.0244666
0.0244721
0.0244804
0.0244901
0.0245002
0.0245099
0.0245192
0.024529
0.0245403
0.0245547
0.024573
0.0245954
0.0246219
0.024652
0.0246855
0.0247226
0.0247633
0.0248078
0.0248561
0.0249076
0.0249612
0.0250158
0.0250702
0.0251239
0.0251764
0.0252278
0.0252777
0.0253255
0.0253702
0.0254107
0.0254458
0.025475
0.0254978
0.0255144
0.0255254
0.0255317
0.025534
0.0255332
0.0255295
0.0255226
0.0255118
0.025497
0.0254782
0.0254562
0.025432
0.0254069
0.0253821
0.0253591
0.0253405
0.0253295
0.0253297
0.0253438
0.0253727
0.0254145
0.0254651
0.0255192
0.0255721
0.0256209
0.0256653
0.0257077
0.0257516
0.0258007
0.0258569
0.0259193
0.0259841
0.0260449
0.026094
0.0261241
0.0261295
0.0261077
0.0260593
0.025988
0.0258997
0.025801
0.0256987
0.0255989
0.0255064
0.0254248
0.0253564
0.0253025
0.0252639
0.0252411
0.0252348
0.0252471
0.0252818
0.0253462
0.0254517
0.0256152
0.025858
0.0262036
0.0266718
0.0272701
0.0279846
0.0287725
0.0295615
0.0302591
0.0307752
0.0310558
0.031117
0.0310542
0.0310031
0.0310582
0.0312081
0.0313491
0.0313795
0.031291
0.0311705
0.0311122
0.0311317
0.031166
0.0311449
0.0310508
0.0309202
0.0308056
0.0307369
0.030705
0.0306796
0.0306427
0.0306045
0.030589
0.0306114
0.0306677
0.03074
0.0308116
0.0308768
0.0309378
0.0309966
0.0310508
0.031097
0.0311353
0.0311723
0.0312159
0.0312699
0.0313323
0.031398
0.0314612
0.0315172
0.0315605
0.0315849
0.031586
0.0315626
0.0315167
0.0314509
0.0313672
0.0312674
0.0311546
0.0310333
0.0309081
0.0307817
0.0306551
0.030528
0.0303996
0.0302701
0.0301409
0.0300151
0.0298966
0.029789
0.0296944
0.029614
0.0295488
0.0294993
0.0294652
0.0294467
0.0294438
0.0294556
0.0294819
0.029523
0.0295814
0.0296578
0.0297537
0.0298683
0.0298683
0.04
0.0246794
0.0254459
0.0259119
0.0261201
0.0261622
0.0263297
0.0267451
0.0270156
0.0263746
0.0260718
0.0264813
0.0265748
0.0260044
0.0257451
0.0259052
0.0258175
0.0254506
0.0252939
0.0252945
0.0251549
0.0249798
0.0249518
0.02497
0.0249339
0.0249405
0.0250146
0.0250738
0.0251053
0.0251671
0.0252397
0.0252861
0.0253248
0.0253809
0.025429
0.0254606
0.0254941
0.0255324
0.0255585
0.025577
0.0255992
0.0256178
0.0256294
0.025637
0.0256505
0.0256524
0.0256615
0.0256568
0.0256731
0.0256582
0.025683
0.02566
0.025701
0.0256668
0.02573
0.0256877
0.0257749
0.0257274
0.0258394
0.0257901
0.0259243
0.0258819
0.0260318
0.0260025
0.0261644
0.0261527
0.0263173
0.0263285
0.0264919
0.0265239
0.0266832
0.0267376
0.0268886
0.0269616
0.0271072
0.0271934
0.0273312
0.0274305
0.0275615
0.0276646
0.0277922
0.0279028
0.0280243
0.0281377
0.0282632
0.0283803
0.0285003
0.0286194
0.0287407
0.0288537
0.0289646
0.0290728
0.0291754
0.0292679
0.0293546
0.0294346
0.0295062
0.0295679
0.0296227
0.0296713
0.0297119
0.0297425
0.0297662
0.0297829
0.029788
0.0297819
0.0297693
0.0297462
0.0297098
0.0296662
0.0296163
0.0295533
0.0294817
0.0294067
0.0293222
0.0292272
0.0291301
0.029029
0.0289191
0.0288064
0.0286948
0.028579
0.02846
0.0283432
0.0282272
0.028109
0.0279918
0.0278776
0.0277645
0.0276518
0.0275423
0.027437
0.0273341
0.0272339
0.0271385
0.0270479
0.02696
0.0268751
0.0267949
0.0267181
0.0266427
0.0265703
0.026502
0.026436
0.0263716
0.026311
0.0262544
0.0261997
0.026147
0.026098
0.0260516
0.0260056
0.0259607
0.0259179
0.0258754
0.0258323
0.0257897
0.0257477
0.0257047
0.0256605
0.0256165
0.0255727
0.0255285
0.025485
0.0254437
0.0254047
0.0253683
0.0253361
0.025309
0.0252866
0.0252687
0.0252556
0.0252459
0.0252387
0.025234
0.0252321
0.025233
0.0252366
0.025243
0.0252515
0.0252608
0.02527
0.0252787
0.0252868
0.0252944
0.0253024
0.0253115
0.0253221
0.0253341
0.0253475
0.0253614
0.0253749
0.0253868
0.0253959
0.0254008
0.0254003
0.0253936
0.0253805
0.0253614
0.0253372
0.0253095
0.0252804
0.025252
0.0252263
0.0252049
0.0251889
0.0251784
0.0251731
0.0251717
0.0251727
0.025174
0.0251737
0.0251696
0.0251603
0.0251447
0.0251224
0.0250939
0.0250604
0.0250237
0.0249857
0.0249482
0.0249128
0.0248806
0.0248523
0.0248283
0.0248089
0.0247942
0.0247841
0.0247783
0.0247763
0.024777
0.0247795
0.0247825
0.0247856
0.0247886
0.0247923
0.0247982
0.0248075
0.0248214
0.0248399
0.0248629
0.0248899
0.0249207
0.0249553
0.0249942
0.0250376
0.0250855
0.0251375
0.0251921
0.0252479
0.025303
0.0253564
0.0254074
0.0254563
0.0255033
0.0255485
0.0255912
0.0256302
0.025664
0.0256912
0.0257109
0.0257226
0.0257265
0.0257236
0.0257148
0.0257014
0.0256844
0.0256644
0.0256414
0.0256152
0.025586
0.0255539
0.0255196
0.0254842
0.025449
0.0254162
0.0253885
0.0253692
0.0253617
0.0253685
0.0253903
0.0254253
0.0254702
0.0255205
0.025572
0.0256225
0.0256715
0.0257207
0.0257729
0.0258306
0.0258949
0.0259647
0.026036
0.0261026
0.0261571
0.0261923
0.0262025
0.0261851
0.0261405
0.0260721
0.0259855
0.0258872
0.025784
0.025682
0.0255862
0.0255006
0.0254279
0.0253699
0.0253273
0.0253007
0.0252908
0.0252991
0.0253292
0.0253883
0.025488
0.0256454
0.0258826
0.026224
0.0266902
0.0272897
0.0280087
0.028804
0.0296017
0.0303069
0.0308261
0.0311024
0.0311515
0.0310717
0.0310049
0.031052
0.031203
0.0313496
0.0313827
0.0312895
0.0311586
0.0310898
0.0311033
0.0311373
0.0311196
0.03103
0.0309036
0.0307928
0.0307286
0.0307028
0.0306847
0.0306552
0.0306234
0.0306125
0.0306371
0.030693
0.0307623
0.0308282
0.0308849
0.0309356
0.030984
0.0310302
0.0310719
0.03111
0.0311505
0.0312003
0.0312621
0.0313323
0.0314038
0.0314692
0.0315226
0.0315582
0.031571
0.0315578
0.0315188
0.0314566
0.0313742
0.0312748
0.0311618
0.0310403
0.0309168
0.0307967
0.0306832
0.0305765
0.0304749
0.0303756
0.0302765
0.0301772
0.030079
0.0299843
0.0298955
0.0298144
0.0297415
0.0296777
0.0296243
0.0295821
0.0295514
0.0295336
0.0295294
0.02954
0.0295661
0.0296102
0.0296731
0.0297564
0.0298602
0.0298602
0.04
0.0253174
0.0258888
0.0255822
0.0259356
0.0263096
0.0264745
0.026468
0.0263759
0.0264416
0.0268116
0.0266897
0.0262917
0.0262905
0.0265319
0.0263568
0.0260228
0.0259749
0.0260154
0.0258246
0.0256115
0.0255686
0.0255408
0.0254366
0.0253877
0.0254275
0.0254515
0.0254582
0.0255078
0.0255776
0.0256193
0.0256596
0.0257196
0.0257731
0.0258075
0.025847
0.0258906
0.0259216
0.0259436
0.02597
0.0259928
0.0260058
0.0260179
0.0260306
0.0260401
0.0260418
0.0260519
0.026051
0.0260625
0.0260523
0.0260751
0.0260551
0.026091
0.0260613
0.0261196
0.0260783
0.0261624
0.0261141
0.026223
0.0261713
0.0263053
0.0262565
0.0264088
0.0263735
0.0265381
0.0265185
0.026689
0.0266917
0.0268588
0.0268841
0.0270472
0.027093
0.0272475
0.0273143
0.0274597
0.027541
0.0276812
0.0277744
0.0279047
0.0280077
0.0281353
0.0282407
0.028364
0.0284797
0.0286029
0.0287177
0.0288422
0.0289631
0.0290813
0.0291947
0.029311
0.0294204
0.0295213
0.0296174
0.0297105
0.0297918
0.0298636
0.029931
0.0299911
0.0300392
0.0300816
0.0301184
0.0301438
0.0301592
0.0301692
0.0301671
0.0301521
0.0301306
0.0300997