# vtk DataFile Version 3.0
LBM output step 1560
ASCII
DATASET STRUCTURED_POINTS
DIMENSIONS 400 100 1
ORIGIN 0 0 0
SPACING 1 1 1
POINT_DATA 40000
SCALARS velocity_magnitude double 1
LOOKUP_TABLE default
0
0
0
0
0
0
0
0
0
0
0
0
0
0
0
0
0
0
0
0
0
0
0
0
0
0
0
0
0
0
0
0
0
0
0
0
0
0
0
0
0
0
0
0
0
0
0
0
0
0
0
0
0
0
0
0
0
0
0
0
0
0
0
0
0
0
0
0
0
0
0
0
0
0
0
0
0
0
0
0
0
0
0
0
0
0
0
0
0
0
0
0
0
0
0
0
0
0
0
0
0
0
0
0
0
0
0
0
0
0
0
0
0
0
0
0
0
0
0
0
0
0
0
0
0
0
0
0
0
0
0
0
0
0
0
0
0
0
0
0
0
0
0
0
0
0
0
0
0
0
0
0
0
0
0
0
0
0
0
0
0
0
0
0
0
0
0
0
0
0
0
0
0
0
0
0
0
0
0
0
0
0
0
0
0
0
0
0
0
0
0
0
0
0
0
0
0
0
0
0
0
0
0
0
0
0
0
0
0
0
0
0
0
0
0
0
0
0
0
0
0
0
0
0
0
0
0
0
0
0
0
0
0
0
0
0
0
0
0
0
0
0
0
0
0
0
0
0
0
0
0
0
0
0
0
0
0
0
0
0
0
0
0
0
0
0
0
0
0
0
0
0
0
0
0
0
0
0
0
0
0
0
0
0
0
0
0
0
0
0
0
0
0
0
0
0
0
0
0
0
0
0
0
0
0
0
0
0
0
0
0
0
0
0
0
0
0
0
0
0
0
0
0
0
0
0
0
0
0
0
0
0
0
0
0
0
0
0
0
0
0
0
0
0
0
0
0
0
0
0
0
0
0
0
0
0
0
0
0
0
0
0
0
0
0
0
0
0
0
0
0
0
0
0
0
0
0
0
0
0
0
0
0
0
0
0
0
0
0
0
0
0
0
0
0
0
0
0
0
0
0.04
0.0176264
0.0115911
0.0144832
0.0176377
0.0176339
0.0143111
0.0130949
0.0129676
0.0130335
0.0126537
0.0125688
0.0122439
0.0120135
0.0118447
0.0118172
0.0116323
0.0114883
0.0113662
0.0112853
0.0111464
0.0110538
0.0109608
0.0108733
0.0107661
0.0106911
0.0106072
0.0105237
0.0104351
0.0103629
0.0102801
0.0101993
0.0101177
0.0100426
0.00995968
0.00988102
0.00980367
0.00973046
0.00965545
0.00958693
0.00952058
0.00945749
0.00939497
0.0093373
0.00928071
0.00922666
0.00917391
0.0091244
0.00907536
0.00902782
0.00898087
0.00893584
0.0088917
0.0088498
0.00881004
0.00877302
0.00873725
0.00870246
0.00866818
0.00863405
0.0085998
0.00856637
0.0085349
0.00850453
0.00847566
0.00844716
0.00841882
0.00838817
0.00835806
0.00832775
0.00830157
0.00827983
0.00826927
0.00826637
0.00827565
0.0082909
0.00831435
0.00833413
0.00835506
0.00836648
0.00837486
0.00837016
0.00836688
0.00835504
0.00834916
0.00833881
0.00834292
0.00834543
0.00836348
0.00838013
0.00841497
0.00844449
0.00848857
0.00852378
0.00857176
0.0086039
0.0086444
0.00866532
0.00869245
0.00869534
0.00870395
0.00868831
0.00867936
0.00864655
0.0086235
0.00857831
0.00854409
0.00848909
0.00844632
0.0083829
0.00833156
0.00826115
0.00820291
0.00812715
0.00806449
0.0079871
0.00792258
0.00784582
0.0077816
0.00770656
0.00764226
0.00756923
0.00750547
0.00743432
0.00737179
0.00730486
0.00724531
0.00718312
0.00712832
0.0070723
0.00702141
0.00697044
0.00692411
0.0068774
0.0068339
0.00679168
0.00675248
0.00671442
0.0066799
0.0066483
0.00661974
0.00659392
0.00657179
0.0065524
0.00653517
0.00652033
0.00650798
0.00649727
0.00648817
0.00648123
0.00647608
0.00647207
0.00646932
0.00646794
0.00646717
0.0064666
0.00646651
0.00646677
0.00646682
0.00646666
0.00646656
0.00646625
0.00646543
0.00646435
0.00646323
0.00646201
0.00646082
0.00646012
0.00646018
0.00646107
0.00646303
0.00646633
0.00647095
0.0064768
0.00648387
0.0064921
0.00650129
0.00651135
0.0065223
0.0065341
0.00654663
0.00655979
0.00657337
0.00658694
0.00659996
0.00661187
0.00662207
0.00662998
0.00663517
0.00663737
0.0066365
0.00663263
0.00662606
0.00661727
0.00660681
0.00659534
0.00658356
0.00657211
0.00656149
0.00655204
0.00654393
0.00653709
0.00653125
0.00652601
0.0065209
0.00651543
0.00650921
0.00650202
0.00649383
0.00648482
0.00647542
0.00646617
0.00645772
0.00645071
0.00644571
0.00644312
0.00644314
0.00644569
0.00645042
0.00645671
0.00646374
0.00647057
0.00647621
0.00647976
0.00648048
0.00647791
0.00647187
0.00646253
0.00645034
0.00643604
0.00642054
0.00640487
0.00639008
0.00637711
0.00636672
0.00635938
0.00635524
0.00635411
0.00635544
0.00635837
0.00636182
0.00636459
0.00636545
0.00636327
0.00635712
0.0063464
0.00633082
0.00631055
0.00628615
0.00625855
0.00622905
0.00619914
0.00617044
0.00614453
0.00612282
0.00610646
0.00609622
0.00609247
0.00609519
0.00610405
0.00611853
0.00613803
0.00616186
0.00618922
0.00621909
0.00625018
0.00628104
0.00631022
0.00633657
0.00635949
0.00637903
0.00639575
0.00641055
0.00642435
0.00643795
0.00645194
0.00646676
0.00648268
0.00649976
0.00651767
0.0065356
0.0065522
0.00656587
0.00657514
0.0065791
0.00657775
0.00657192
0.00656287
0.00655169
0.00653869
0.00652313
0.00650343
0.00647778
0.00644499
0.00640519
0.00636011
0.00631275
0.00626669
0.00622507
0.00618976
0.00616084
0.00613667
0.00611436
0.00609061
0.00606255
0.00602845
0.00598813
0.00594296
0.00589556
0.00584932
0.00580784
0.00577442
0.00575167
0.00574129
0.00574404
0.00575973
0.00578745
0.00582567
0.00587251
0.00592587
0.00598365
0.00604377
0.00610437
0.00616377
0.00622053
0.00627349
0.00632172
0.00636458
0.00640167
0.00643286
0.00645824
0.00647814
0.00649309
0.00650378
0.00651102
0.00651572
0.00651882
0.00652122
0.00652377
0.00652716
0.00653192
0.00653836
0.00654655
0.00655637
0.0065675
0.00657947
0.00659178
0.00660389
0.00661537
0.00662584
0.00663512
0.0066431
0.00664984
0.00665544
0.00666005
0.00666381
0.00666683
0.00666916
0.00667081
0.00667177
0.00667201
0.00667152
0.00667031
0.00666845
0.00666604
0.00666324
0.00666022
0.00665715
0.00665424
0.00665165
0.00664951
0.00664793
0.00664694
0.00664653
0.00664663
0.00664715
0.00664799
0.00664905
0.0066503
0.00665178
0.00665362
0.00665603
0.00665926
0.00666357
0.00666918
0.00667618
0.00668455
0.00669403
0.00670428
0.0067147
0.00672473
0.00673356
0.0067407
0.00674525
0.00674687
0.00674505
0.00674028
0.00673031
0.00671481
0.00671481
0.04
0.0275667
0.0300048
0.0275283
0.0198836
0.0180372
0.0209005
0.0218056
0.0200753
0.0190586
0.0189626
0.0187756
0.018381
0.0182326
0.0180106
0.017691
0.0174564
0.0173614
0.0171769
0.0169681
0.0168192
0.0167065
0.0165481
0.0164095
0.0163011
0.0161903
0.016062
0.0159576
0.0158627
0.0157601
0.0156563
0.0155689
0.0154814
0.015391
0.0153067
0.0152324
0.0151579
0.015087
0.0150247
0.0149686
0.0149138
0.014864
0.0148195
0.0147773
0.0147364
0.0146995
0.0146656
0.0146332
0.0146028
0.0145753
0.01455
0.0145267
0.0145066
0.0144908
0.0144793
0.0144715
0.0144678
0.0144677
0.0144698
0.0144737
0.0144807
0.0144904
0.0145033
0.0145195
0.0145401
0.0145615
0.0145851
0.0146094
0.0146359
0.0146626
0.0146973
0.0147382
0.0147903
0.0148513
0.0149285
0.0150097
0.0150993
0.0151869
0.0152784
0.0153558
0.0154328
0.0154981
0.0155661
0.0156198
0.015685
0.0157444
0.0158184
0.0158841
0.0159718
0.0160519
0.0161498
0.0162337
0.0163379
0.0164217
0.0165187
0.0165886
0.0166714
0.0167187
0.0167752
0.0167929
0.0168205
0.0168059
0.0168041
0.0167605
0.0167333
0.0166654
0.0166174
0.0165288
0.0164637
0.0163581
0.016276
0.0161556
0.0160618
0.0159291
0.0158246
0.0156874
0.0155777
0.0154361
0.0153248
0.0151855
0.0150713
0.0149331
0.0148211
0.0146866
0.0145747
0.0144476
0.0143418
0.0142224
0.0141228
0.0140153
0.0139234
0.0138249
0.0137408
0.0136531
0.0135757
0.0134966
0.0134276
0.0133587
0.0132976
0.0132391
0.0131884
0.0131406
0.0130989
0.0130613
0.0130291
0.0129995
0.0129743
0.0129527
0.0129345
0.0129188
0.0129066
0.0128974
0.0128902
0.0128849
0.0128817
0.0128799
0.0128787
0.0128785
0.0128791
0.01288
0.012881
0.0128822
0.0128837
0.012885
0.0128864
0.0128882
0.0128906
0.0128935
0.0128973
0.0129025
0.0129088
0.0129163
0.0129252
0.0129352
0.012946
0.0129575
0.0129696
0.0129819
0.0129943
0.0130068
0.0130194
0.0130318
0.0130439
0.0130553
0.0130657
0.0130743
0.0130808
0.0130846
0.0130853
0.0130828
0.0130769
0.013068
0.0130564
0.0130425
0.0130271
0.0130109
0.0129946
0.0129789
0.0129643
0.0129512
0.0129398
0.0129301
0.0129217
0.0129144
0.0129077
0.0129012
0.0128944
0.0128872
0.0128796
0.0128717
0.0128639
0.0128566
0.0128505
0.012846
0.0128435
0.0128434
0.0128456
0.01285
0.0128562
0.0128635
0.0128711
0.0128781
0.0128835
0.0128867
0.012887
0.0128841
0.0128779
0.0128687
0.0128568
0.0128431
0.0128284
0.0128136
0.0127996
0.0127872
0.0127771
0.0127696
0.0127648
0.0127625
0.0127621
0.0127629
0.0127639
0.0127639
0.012762
0.0127571
0.0127484
0.0127355
0.0127182
0.0126967
0.0126717
0.012644
0.0126151
0.0125863
0.0125593
0.0125356
0.0125164
0.012503
0.0124959
0.0124956
0.0125018
0.0125142
0.0125323
0.0125555
0.0125828
0.0126135
0.0126464
0.0126802
0.0127135
0.0127448
0.012773
0.0127977
0.0128187
0.0128368
0.0128527
0.0128672
0.0128812
0.0128953
0.0129098
0.0129249
0.0129406
0.0129565
0.0129716
0.0129848
0.0129943
0.0129988
0.0129976
0.0129907
0.012979
0.0129637
0.0129458
0.0129258
0.0129029
0.0128759
0.0128432
0.0128039
0.0127584
0.0127085
0.0126572
0.0126081
0.0125642
0.0125272
0.012497
0.0124721
0.0124496
0.0124264
0.0123998
0.0123682
0.0123317
0.0122918
0.0122512
0.0122135
0.012182
0.0121602
0.0121503
0.012154
0.0121717
0.012203
0.0122466
0.0123008
0.0123632
0.0124317
0.0125038
0.0125772
0.0126501
0.0127205
0.012787
0.0128485
0.012904
0.0129531
0.0129954
0.0130309
0.01306
0.013083
0.0131007
0.013114
0.0131237
0.0131309
0.0131366
0.0131418
0.0131473
0.0131538
0.0131618
0.0131715
0.0131829
0.0131958
0.0132098
0.0132244
0.013239
0.0132529
0.0132659
0.0132774
0.0132873
0.0132956
0.0133023
0.0133076
0.0133117
0.0133149
0.0133174
0.0133193
0.0133207
0.0133216
0.0133221
0.0133222
0.0133218
0.0133211
0.01332
0.0133188
0.0133174
0.0133162
0.0133152
0.0133145
0.0133143
0.0133147
0.0133157
0.0133172
0.0133192
0.0133217
0.0133244
0.0133274
0.0133307
0.0133341
0.0133379
0.0133423
0.0133475
0.0133536
0.013361
0.0133696
0.0133794
0.01339
0.0134011
0.0134121
0.0134222
0.0134308
0.0134372
0.0134409
0.0134413
0.0134376
0.0134296
0.0134175
0.0134023
0.0134023
0.04
0.0278635
0.0264844
0.0239506
0.0250859
0.0270892
0.0261726
0.0242917
0.0242485
0.0247412
0.0242116
0.0234633
0.0231937
0.0230505
0.0226847
0.0223988
0.022205
0.0219741
0.021707
0.0215387
0.0213787
0.0211868
0.0210052
0.0208763
0.0207346
0.0205862
0.0204565
0.0203468
0.0202247
0.0201094
0.0200087
0.0199138
0.0198145
0.0197269
0.0196493
0.0195755
0.0195059
0.0194494
0.0194004
0.0193563
0.0193189
0.0192899
0.019264
0.0192411
0.0192226
0.0192079
0.0191948
0.0191843
0.019177
0.0191723
0.0191697
0.0191703
0.019175
0.0191844
0.0191982
0.0192171
0.0192414
0.0192695
0.0193005
0.0193351
0.0193737
0.0194151
0.0194608
0.0195116
0.0195669
0.019624
0.0196853
0.0197483
0.0198135
0.0198811
0.0199573
0.0200393
0.0201332
0.0202379
0.0203573
0.0204812
0.0206159
0.0207497
0.0208851
0.0210092
0.0211352
0.0212479
0.021361
0.0214633
0.021577
0.021681
0.0217984
0.0219104
0.0220422
0.0221621
0.0223003
0.0224252
0.0225677
0.0226856
0.0228179
0.0229209
0.0230351
0.0231092
0.0231937
0.0232346
0.0232857
0.0232876
0.023305
0.0232732
0.0232593
0.0231952
0.0231567
0.0230658
0.0230022
0.0228872
0.0228043
0.0226657
0.0225635
0.0224093
0.0222929
0.0221245
0.0220003
0.0218257
0.0216941
0.021516
0.0213825
0.0212026
0.0210663
0.0208899
0.0207547
0.020583
0.0204523
0.0202914
0.0201668
0.0200174
0.0199015
0.0197652
0.0196568
0.0195333
0.0194341
0.0193232
0.0192326
0.0191355
0.0190557
0.0189722
0.0189036
0.0188347
0.0187777
0.0187212
0.0186746
0.0186298
0.0185922
0.0185565
0.0185272
0.0185004
0.0184782
0.0184585
0.0184429
0.0184291
0.0184178
0.0184082
0.0184006
0.0183939
0.0183883
0.0183838
0.0183801
0.0183769
0.0183744
0.0183725
0.0183713
0.0183706
0.0183709
0.0183721
0.0183744
0.0183778
0.0183825
0.0183884
0.0183955
0.0184037
0.0184128
0.0184226
0.0184329
0.0184437
0.0184548
0.0184661
0.0184776
0.0184891
0.0185005
0.0185114
0.0185214
0.0185299
0.0185365
0.0185407
0.018542
0.0185402
0.0185353
0.0185275
0.0185171
0.0185045
0.0184904
0.0184755
0.0184604
0.0184457
0.0184319
0.0184194
0.0184084
0.0183988
0.0183906
0.0183834
0.0183768
0.0183705
0.0183641
0.0183576
0.0183508
0.018344
0.0183374
0.0183314
0.0183266
0.0183232
0.0183218
0.0183224
0.018325
0.0183294
0.0183353
0.0183421
0.018349
0.0183553
0.0183603
0.0183634
0.0183641
0.0183622
0.0183578
0.0183509
0.018342
0.0183316
0.0183204
0.018309
0.0182982
0.0182886
0.0182807
0.0182746
0.0182705
0.0182683
0.0182675
0.0182677
0.0182679
0.0182674
0.0182654
0.018261
0.0182535
0.0182425
0.0182279
0.0182097
0.0181884
0.0181648
0.0181399
0.018115
0.0180914
0.0180706
0.0180537
0.0180417
0.0180352
0.0180348
0.0180403
0.0180516
0.0180681
0.0180895
0.0181148
0.0181433
0.0181739
0.0182054
0.0182365
0.018266
0.0182928
0.0183165
0.0183371
0.0183551
0.018371
0.0183859
0.0184004
0.0184151
0.0184305
0.0184466
0.0184635
0.0184807
0.0184972
0.0185118
0.0185232
0.0185301
0.0185317
0.0185281
0.0185199
0.0185082
0.0184939
0.0184774
0.0184581
0.0184349
0.0184066
0.0183723
0.0183323
0.0182884
0.018243
0.0181995
0.0181605
0.0181277
0.0181013
0.0180798
0.0180607
0.0180411
0.0180185
0.0179913
0.0179595
0.0179243
0.0178882
0.0178545
0.0178265
0.0178072
0.0177993
0.0178041
0.0178223
0.0178536
0.0178968
0.0179503
0.0180121
0.0180798
0.0181513
0.0182243
0.0182969
0.0183673
0.0184341
0.0184961
0.0185524
0.0186026
0.0186462
0.0186834
0.0187142
0.0187393
0.0187592
0.0187748
0.0187869
0.0187965
0.0188045
0.0188118
0.0188193
0.0188275
0.018837
0.0188479
0.0188603
0.0188741
0.018889
0.0189044
0.0189198
0.0189348
0.0189489
0.0189616
0.0189729
0.0189825
0.0189905
0.018997
0.0190022
0.0190063
0.0190096
0.0190121
0.019014
0.0190153
0.0190161
0.0190165
0.0190165
0.0190162
0.0190156
0.019015
0.0190143
0.0190139
0.0190137
0.0190139
0.0190146
0.0190158
0.0190176
0.0190199
0.0190227
0.0190258
0.0190292
0.0190328
0.0190365
0.0190404
0.0190446
0.0190493
0.0190548
0.0190613
0.0190689
0.0190778
0.019088
0.0190991
0.0191109
0.0191227
0.0191339
0.019144
0.0191521
0.0191575
0.0191602
0.0191595
0.0191546
0.019146
0.0191337
0.0191337
0.04
0.0295852
0.0309243
0.0312833
0.0313734
0.0289522
0.0272839
0.0281758
0.0289955
0.0278735
0.0268164
0.0268982
0.0269481
0.026417
0.0259683
0.0258549
0.0256355
0.0253119
0.0250951
0.0249518
0.0247212
0.0245102
0.0243664
0.0242239
0.0240413
0.0238978
0.0237802
0.0236511
0.0235145
0.0234086
0.0233068
0.0231992
0.0230992
0.0230186
0.0229377
0.0228612
0.0227985
0.0227495
0.0227036
0.0226683
0.0226448
0.0226289
0.0226161
0.0226112
0.0226116
0.0226149
0.0226205
0.0226307
0.0226432
0.0226578
0.0226749
0.0226957
0.0227202
0.022749
0.0227823
0.0228215
0.0228658
0.0229138
0.0229655
0.0230217
0.0230811
0.0231435
0.0232113
0.0232842
0.0233607
0.0234409
0.0235258
0.0236123
0.0237019
0.0237957
0.0238967
0.024004
0.0241244
0.0242555
0.0243991
0.0245506
0.024713
0.0248737
0.025036
0.0251923
0.0253478
0.0254898
0.0256338
0.025771
0.0259142
0.0260491
0.0261995
0.0263467
0.0265076
0.0266602
0.0268322
0.026992
0.0271635
0.0273153
0.0274808
0.0276167
0.0277593
0.0278664
0.027981
0.0280512
0.0281292
0.0281604
0.0282025
0.0281948
0.0282045
0.028162
0.028142
0.0280685
0.028022
0.0279179
0.0278478
0.0277168
0.0276233
0.0274692
0.0273602
0.0271864
0.0270642
0.0268798
0.0267489
0.0265534
0.0264176
0.0262176
0.0260759
0.0258734
0.0257322
0.0255323
0.0253922
0.0252005
0.0250666
0.024885
0.0247573
0.0245891
0.0244691
0.0243138
0.0242013
0.0240611
0.0239575
0.0238321
0.0237389
0.0236307
0.0235486
0.0234563
0.0233864
0.0233101
0.0232504
0.0231872
0.0231378
0.0230865
0.0230451
0.0230043
0.0229718
0.0229397
0.0229136
0.0228892
0.0228691
0.0228497
0.0228335
0.0228188
0.0228061
0.0227942
0.0227843
0.0227757
0.0227682
0.0227618
0.022757
0.0227534
0.0227509
0.0227499
0.0227505
0.0227523
0.0227554
0.0227599
0.0227657
0.0227724
0.0227801
0.0227887
0.022798
0.0228077
0.0228179
0.0228286
0.0228395
0.0228506
0.0228617
0.0228725
0.0228826
0.0228914
0.0228984
0.0229032
0.0229052
0.0229044
0.0229006
0.0228939
0.0228846
0.0228733
0.0228605
0.0228467
0.0228327
0.022819
0.022806
0.0227942
0.0227836
0.0227744
0.0227663
0.0227594
0.0227531
0.0227473
0.0227417
0.0227361
0.0227306
0.0227253
0.0227203
0.0227161
0.022713
0.0227113
0.0227112
0.0227128
0.022716
0.0227207
0.0227264
0.0227326
0.0227388
0.0227444
0.0227489
0.0227519
0.022753
0.0227522
0.0227495
0.0227451
0.0227393
0.0227325
0.0227251
0.0227175
0.0227103
0.0227037
0.0226981
0.0226936
0.0226902
0.0226879
0.0226864
0.0226854
0.0226844
0.0226828
0.02268
0.0226755
0.0226688
0.0226595
0.0226474
0.0226325
0.0226152
0.022596
0.0225758
0.0225555
0.0225363
0.0225193
0.0225056
0.022496
0.0224912
0.0224915
0.0224973
0.0225083
0.0225242
0.0225447
0.0225689
0.0225961
0.0226253
0.0226553
0.0226851
0.0227136
0.02274
0.0227639
0.0227851
0.022804
0.0228213
0.0228376
0.0228538
0.0228704
0.0228877
0.022906
0.0229249
0.022944
0.0229624
0.0229788
0.022992
0.0230009
0.0230048
0.0230037
0.022998
0.0229885
0.0229759
0.0229605
0.022942
0.0229197
0.0228925
0.0228599
0.0228222
0.0227807
0.0227378
0.0226962
0.0226583
0.0226256
0.0225985
0.0225757
0.0225552
0.0225344
0.0225111
0.0224838
0.0224523
0.0224179
0.0223826
0.0223497
0.0223222
0.0223032
0.0222951
0.0222995
0.0223171
0.0223477
0.0223902
0.0224431
0.0225044
0.0225718
0.0226432
0.0227163
0.0227891
0.02286
0.0229275
0.0229903
0.0230476
0.0230989
0.0231438
0.0231823
0.0232148
0.0232415
0.0232633
0.0232808
0.0232949
0.0233066
0.0233166
0.023326
0.0233352
0.0233451
0.0233559
0.0233679
0.0233813
0.0233958
0.0234113
0.0234272
0.0234432
0.0234587
0.0234732
0.0234865
0.0234982
0.0235081
0.0235162
0.0235227
0.0235277
0.0235314
0.0235339
0.0235356
0.0235364
0.0235367
0.0235364
0.0235357
0.0235347
0.0235335
0.0235321
0.0235308
0.0235296
0.0235286
0.023528
0.0235278
0.0235282
0.0235291
0.0235306
0.0235325
0.023535
0.0235377
0.0235408
0.023544
0.0235475
0.0235511
0.0235552
0.0235598
0.0235653
0.0235717
0.0235794
0.0235885
0.0235988
0.0236103
0.0236225
0.023635
0.0236472
0.0236584
0.023668
0.0236753
0.0236795
0.0236806
0.0236783
0.0236726
0.0236629
0.0236629
0.04
0.0307595
0.0318537
0.0305121
0.0298901
0.0302256
0.031427
0.0308461
0.0293367
0.0291155
0.0298358
0.0295924
0.0287449
0.0284691
0.0285543
0.0283046
0.0279032
0.0277285
0.0275975
0.0273559
0.0271355
0.0270082
0.0268443
0.0266542
0.0265089
0.0263945
0.0262473
0.026108
0.0259982
0.0258926
0.0257717
0.0256685
0.0255789
0.0254879
0.0253973
0.0253258
0.0252629
0.0252048
0.025158
0.0251285
0.025106
0.0250918
0.0250887
0.0250953
0.0251052
0.0251212
0.0251429
0.025168
0.0251947
0.025225
0.025258
0.0252937
0.0253325
0.0253756
0.0254233
0.0254764
0.0255335
0.0255951
0.0256611
0.0257306
0.0258026
0.0258791
0.0259607
0.0260456
0.0261351
0.0262298
0.0263279
0.026428
0.026533
0.0266424
0.0267577
0.0268812
0.027017
0.0271626
0.0273212
0.0274895
0.0276655
0.0278422
0.0280226
0.0281973
0.0283681
0.0285312
0.0286967
0.0288539
0.0290147
0.0291753
0.0293478
0.0295159
0.0296971
0.0298781
0.0300721
0.0302552
0.0304499
0.0306313
0.0308191
0.0309816
0.0311487
0.0312856
0.0314235
0.0315222
0.0316243
0.0316851
0.0317508
0.0317708
0.0318038
0.0317895
0.0317906
0.0317418
0.0317175
0.031636
0.0315826
0.031472
0.0313967
0.0312555
0.0311603
0.0309994
0.0308885
0.0307073
0.030588
0.0303932
0.0302631
0.0300572
0.0299226
0.0297083
0.0295693
0.0293542
0.0292162
0.0290033
0.0288687
0.0286643
0.0285346
0.0283397
0.028216
0.0280342
0.0279163
0.0277481
0.0276381
0.0274865
0.0273849
0.0272507
0.0271601
0.0270442
0.0269637
0.0268652
0.0267955
0.0267121
0.026651
0.0265819
0.0265299
0.0264723
0.0264284
0.0263822
0.0263455
0.0263075
0.0262771
0.0262466
0.0262208
0.0261954
0.0261743
0.0261539
0.0261363
0.02612
0.0261066
0.0260946
0.0260846
0.0260765
0.0260707
0.0260663
0.0260638
0.0260629
0.0260636
0.0260655
0.0260686
0.0260729
0.0260781
0.0260841
0.0260909
0.0260984
0.0261064
0.026115
0.0261241
0.0261336
0.0261433
0.0261529
0.0261619
0.0261699
0.0261762
0.0261805
0.0261822
0.0261812
0.0261773
0.0261707
0.0261616
0.0261506
0.0261381
0.0261247
0.0261111
0.0260977
0.0260849
0.0260732
0.0260626
0.0260533
0.0260453
0.0260384
0.0260323
0.0260269
0.0260219
0.0260172
0.0260129
0.0260088
0.0260053
0.0260026
0.0260008
0.0260003
0.0260012
0.0260034
0.0260069
0.0260115
0.0260167
0.0260223
0.0260277
0.0260326
0.0260366
0.0260395
0.0260411
0.0260415
0.0260407
0.0260388
0.0260362
0.0260329
0.0260293
0.0260255
0.0260217
0.026018
0.0260146
0.0260114
0.0260086
0.0260059
0.0260035
0.0260011
0.0259985
0.0259954
0.0259916
0.0259867
0.0259804
0.0259725
0.0259627
0.0259512
0.025938
0.0259235
0.0259082
0.025893
0.0258784
0.0258656
0.0258552
0.025848
0.0258445
0.0258453
0.0258506
0.0258603
0.0258744
0.0258925
0.0259141
0.0259383
0.0259642
0.0259909
0.0260174
0.026043
0.026067
0.026089
0.026109
0.0261272
0.026144
0.0261601
0.0261762
0.0261929
0.0262105
0.0262291
0.0262484
0.0262678
0.0262862
0.0263026
0.0263159
0.026325
0.0263295
0.0263292
0.0263244
0.0263155
0.0263032
0.0262876
0.0262685
0.0262456
0.0262182
0.0261861
0.0261497
0.0261102
0.0260693
0.0260293
0.0259923
0.0259595
0.0259314
0.025907
0.0258847
0.0258623
0.0258379
0.0258102
0.0257791
0.0257456
0.0257115
0.0256798
0.0256534
0.0256351
0.0256273
0.0256316
0.0256486
0.0256784
0.0257198
0.0257716
0.0258317
0.025898
0.0259683
0.0260405
0.0261126
0.0261828
0.0262498
0.0263123
0.0263695
0.0264208
0.0264658
0.0265048
0.0265377
0.0265653
0.026588
0.0266066
0.026622
0.0266349
0.0266463
0.0266567
0.026667
0.0266776
0.0266888
0.026701
0.0267142
0.0267284
0.0267432
0.0267584
0.0267736
0.0267883
0.026802
0.0268144
0.0268252
0.0268342
0.0268413
0.0268465
0.02685
0.026852
0.0268528
0.0268524
0.0268512
0.0268493
0.0268469
0.0268442
0.0268412
0.0268382
0.0268351
0.0268322
0.0268296
0.0268272
0.0268253
0.0268239
0.0268231
0.0268227
0.026823
0.0268237
0.026825
0.0268266
0.0268285
0.0268307
0.0268332
0.0268361
0.0268394
0.0268434
0.0268482
0.0268541
0.0268613
0.0268699
0.0268798
0.026891
0.0269031
0.0269156
0.026928
0.0269396
0.0269498
0.0269582
0.026964
0.0269667
0.0269661
0.0269621
0.0269542
0.0269542
0.04
0.0287412
0.0292319
0.0304926
0.0313074
0.0312333
0.0309783
0.0304373
0.0308144
0.0312416
0.0307437
0.0300291
0.0301397
0.0303584
0.0300092
0.029572
0.0295191
0.0294928
0.0292393
0.0290092
0.0289162
0.0287917
0.0285989
0.0284618
0.0283606
0.0282247
0.0280812
0.0279804
0.0278794
0.0277601
0.0276515
0.0275644
0.0274684
0.02737
0.0272861
0.0272132
0.0271383
0.0270747
0.0270274
0.0269904
0.0269605
0.0269465
0.0269451
0.0269516
0.026966
0.0269907
0.0270207
0.0270546
0.0270926
0.0271344
0.0271781
0.0272246
0.0272739
0.0273268
0.027384
0.0274455
0.0275107
0.0275809
0.0276549
0.0277311
0.0278106
0.0278949
0.027982
0.0280726
0.0281691
0.0282699
0.0283734
0.0284811
0.0285937
0.0287098
0.0288325
0.0289642
0.0291059
0.0292581
0.0294235
0.0295977
0.0297792
0.0299649
0.0301528
0.0303349
0.0305155
0.030692
0.0308658
0.0310336
0.031208
0.0313834
0.0315643
0.0317464
0.0319432
0.0321402
0.0323442
0.0325453
0.0327571
0.0329567
0.0331572
0.0333416
0.0335271
0.0336845
0.0338384
0.0339627
0.0340834
0.0341673
0.0342524
0.0342999
0.0343507
0.0343621
0.0343845
0.0343616
0.0343544
0.0342998
0.0342656
0.0341767
0.0341187
0.0340007
0.0339199
0.0337764
0.0336816
0.0335144
0.0334065
0.0332225
0.033104
0.0329016
0.0327764
0.0325622
0.0324307
0.0322088
0.0320774
0.0318537
0.0317233
0.0315028
0.0313764
0.0311622
0.0310392
0.0308349
0.0307172
0.0305252
0.0304127
0.0302366
0.030132
0.029973
0.0298767
0.0297373
0.0296505
0.0295287
0.0294507
0.0293467
0.0292764
0.0291871
0.0291252
0.0290503
0.0289955
0.0289326
0.0288855
0.028833
0.0287914
0.0287474
0.0287116
0.0286743
0.028643
0.0286123
0.0285862
0.0285609
0.0285397
0.0285205
0.0285045
0.0284904
0.0284793
0.0284703
0.0284635
0.0284582
0.0284548
0.0284526
0.0284515
0.0284515
0.0284526
0.0284545
0.0284572
0.0284608
0.0284654
0.0284707
0.0284768
0.0284836
0.0284908
0.0284981
0.028505
0.0285111
0.0285157
0.0285184
0.0285188
0.0285165
0.0285115
0.0285039
0.028494
0.0284822
0.0284691
0.0284551
0.0284409
0.0284269
0.0284135
0.0284011
0.0283898
0.0283798
0.0283711
0.0283636
0.0283571
0.0283514
0.0283464
0.0283419
0.0283379
0.0283343
0.0283312
0.0283287
0.0283272
0.0283266
0.0283271
0.0283286
0.0283312
0.0283345
0.0283384
0.0283425
0.0283466
0.0283503
0.0283535
0.028356
0.0283578
0.028359
0.0283595
0.0283594
0.028359
0.0283583
0.0283573
0.028356
0.0283544
0.0283525
0.0283502
0.0283474
0.0283443
0.0283406
0.0283366
0.0283322
0.0283274
0.0283223
0.0283168
0.0283108
0.0283042
0.0282969
0.0282888
0.0282799
0.0282701
0.0282596
0.0282487
0.0282379
0.0282275
0.0282181
0.0282104
0.0282048
0.0282019
0.0282021
0.0282058
0.0282132
0.0282242
0.0282387
0.0282561
0.0282758
0.0282969
0.0283187
0.0283405
0.0283618
0.0283821
0.0284011
0.0284187
0.028435
0.0284504
0.0284653
0.0284805
0.0284965
0.0285136
0.0285318
0.0285507
0.0285696
0.0285875
0.0286034
0.0286162
0.0286253
0.0286301
0.0286304
0.0286263
0.0286178
0.0286053
0.028589
0.0285691
0.0285453
0.0285176
0.0284861
0.0284511
0.0284134
0.0283745
0.028336
0.0282994
0.028266
0.0282362
0.0282096
0.0281848
0.0281603
0.0281345
0.0281063
0.0280753
0.0280425
0.0280095
0.0279787
0.0279529
0.0279347
0.0279264
0.0279297
0.0279452
0.027973
0.0280123
0.0280617
0.0281195
0.0281836
0.0282518
0.0283222
0.0283926
0.0284615
0.0285273
0.0285888
0.0286453
0.028696
0.0287408
0.0287796
0.0288128
0.0288406
0.0288639
0.0288832
0.0288993
0.0289131
0.0289251
0.0289362
0.0289467
0.0289573
0.0289682
0.0289797
0.0289919
0.0290047
0.029018
0.0290316
0.029045
0.029058
0.0290701
0.0290809
0.02909
0.0290973
0.0291026
0.029106
0.0291075
0.0291072
0.0291056
0.0291027
0.0290988
0.0290942
0.0290891
0.0290837
0.0290782
0.0290728
0.0290674
0.0290623
0.0290575
0.0290532
0.0290494
0.0290461
0.0290433
0.0290412
0.0290395
0.0290385
0.0290379
0.0290378
0.0290382
0.0290389
0.0290401
0.0290418
0.0290441
0.0290471
0.0290511
0.0290563
0.0290628
0.0290707
0.02908
0.0290906
0.0291022
0.0291143
0.0291266
0.0291383
0.0291488
0.0291575
0.029164
0.0291679
0.0291687
0.0291663
0.0291603
0.0291603
0.04
0.0286573
0.0293501
0.0299195
0.0301681
0.0302965
0.0305305
0.0310312
0.0314057
0.0308386
0.0305621
0.0310398
0.0312359
0.0307078
0.0304478
0.030664
0.0306706
0.0303393
0.0301811
0.0302119
0.03011
0.0299107
0.0298167
0.029763
0.0296337
0.0295053
0.0294325
0.0293495
0.0292326
0.0291398
0.0290671
0.0289757
0.0288756
0.0287965
0.0287201
0.0286346
0.0285571
0.0284974
0.0284408
0.0283904
0.0283571
0.0283396
0.0283293
0.0283315
0.0283483
0.0283741
0.0284053
0.0284448
0.0284902
0.0285382
0.0285886
0.0286427
0.028699
0.0287582
0.0288207
0.0288869
0.0289572
0.0290317
0.0291084
0.0291881
0.0292719
0.0293577
0.0294458
0.0295392
0.0296372
0.0297376
0.0298428
0.0299535
0.0300673
0.0301853
0.0303113
0.030445
0.030588
0.0307424
0.0309083
0.0310828
0.0312662
0.0314537
0.0316415
0.0318276
0.0320136
0.0321931
0.0323696
0.0325469
0.0327281
0.0329074
0.0330943
0.0332892
0.0334925
0.0336956
0.0339092
0.0341252
0.0343439
0.0345541
0.034767
0.0349674
0.035162
0.0353352
0.0355023
0.0356444
0.0357777
0.035881
0.0359798
0.0360485
0.0361142
0.0361468
0.0361846
0.0361858
0.0361926
0.0361607
0.0361436
0.036077
0.0360315
0.0359372
0.0358713
0.0357453
0.0356635
0.0355164
0.0354187
0.0352473
0.0351413
0.0349496
0.0348318
0.0346235
0.0345013
0.0342794
0.0341541
0.0339266
0.0338024
0.0335721
0.0334498
0.0332225
0.0331032
0.0328811
0.0327652
0.032554
0.0324426
0.0322442
0.0321389
0.0319584
0.0318596
0.0316972
0.0316066
0.0314636
0.0313792
0.031254
0.0311773
0.0310686
0.0309977
0.0309047
0.0308414
0.0307615
0.0307041
0.0306367
0.0305855
0.0305271
0.0304811
0.0304319
0.0303911
0.0303488
0.0303138
0.0302794
0.0302502
0.0302225
0.0301999
0.0301794
0.0301624
0.0301476
0.0301359
0.0301256
0.0301172
0.03011
0.0301042
0.0300992
0.0300951
0.030092
0.03009
0.0300889
0.0300891
0.0300903
0.0300926
0.0300958
0.0300997
0.0301039
0.0301078
0.030111
0.030113
0.0301131
0.0301109
0.0301062
0.0300989
0.0300891
0.0300771
0.0300634
0.0300484
0.0300327
0.0300169
0.0300013
0.0299865
0.0299726
0.02996
0.0299487
0.0299388
0.0299302
0.0299227
0.0299162
0.0299105
0.0299054
0.0299007
0.0298965
0.0298926
0.0298893
0.0298866
0.0298847
0.0298836
0.0298834
0.029884
0.0298854
0.0298873
0.0298895
0.029892
0.0298944
0.0298967
0.0298987
0.0299004
0.0299018
0.0299029
0.0299038
0.0299044
0.0299048
0.029905
0.0299048
0.029904
0.0299026
0.0299004
0.0298972
0.0298932
0.0298882
0.0298824
0.0298759
0.029869
0.0298617
0.0298543
0.0298468
0.0298394
0.0298321
0.0298247
0.0298174
0.0298101
0.0298028
0.0297954
0.0297882
0.0297813
0.029775
0.0297696
0.0297654
0.0297628
0.0297622
0.029764
0.0297686
0.0297761
0.0297863
0.029799
0.0298135
0.0298292
0.0298454
0.0298617
0.0298779
0.0298937
0.0299089
0.0299233
0.0299371
0.0299503
0.0299635
0.0299771
0.0299918
0.0300079
0.0300253
0.0300434
0.0300614
0.0300783
0.0300932
0.0301053
0.0301139
0.0301185
0.030119
0.030115
0.0301064
0.0300933
0.0300759
0.0300544
0.0300292
0.0300006
0.0299689
0.0299346
0.0298984
0.029861
0.0298236
0.0297873
0.029753
0.0297212
0.0296918
0.029664
0.0296368
0.0296089
0.0295794
0.0295481
0.0295155
0.0294832
0.0294531
0.0294278
0.0294097
0.0294009
0.0294031
0.0294171
0.0294429
0.0294799
0.0295269
0.0295822
0.0296439
0.0297098
0.029778
0.0298464
0.0299135
0.0299778
0.030038
0.0300933
0.0301431
0.0301872
0.0302255
0.0302583
0.0302861
0.0303095
0.030329
0.0303455
0.0303595
0.0303718
0.030383
0.0303934
0.0304035
0.0304137
0.030424
0.0304346
0.0304457
0.0304569
0.0304683
0.0304795
0.0304902
0.0304999
0.0305084
0.0305153
0.0305204
0.0305234
0.0305244
0.0305233
0.0305205
0.0305161
0.0305104
0.0305036
0.0304961
0.0304882
0.0304801
0.0304719
0.0304638
0.030456
0.0304486
0.0304416
0.030435
0.030429
0.0304236
0.0304188
0.0304145
0.0304108
0.0304078
0.0304053
0.0304034
0.0304022
0.0304015
0.0304014
0.0304021
0.0304036
0.0304059
0.0304094
0.0304141
0.0304201
0.0304276
0.0304364
0.0304466
0.0304577
0.0304694
0.0304812
0.0304926
0.030503
0.0305117
0.0305183
0.0305225
0.0305237
0.0305223
0.0305174
0.0305174
0.04
0.0293797
0.0299302
0.0296043
0.0299891
0.0304513
0.0306323
0.0306573
0.030631
0.0307811
0.0312293
0.031169
0.0308065
0.030858
0.0311925
0.031101
0.030806
0.0308042
0.0309374
0.0308318
0.0306559
0.0306337
0.0306358
0.030528
0.0304251
0.0303903
0.0303354
0.0302401
0.0301699
0.0301212
0.0300461
0.0299617
0.029896
0.02983
0.0297471
0.0296699
0.029605
0.0295388
0.0294726
0.0294224
0.0293849
0.0293542
0.0293363
0.0293363
0.0293471
0.0293671
0.0293987
0.02944
0.0294857
0.0295365
0.0295918
0.0296495
0.0297092
0.0297721
0.0298374
0.0299059
0.0299785
0.0300537
0.0301314
0.030213
0.0302965
0.0303809
0.0304694
0.0305622
0.0306571
0.0307563
0.0308619
0.0309709
0.0310833
0.0312025
0.0313285
0.0314608
0.0316033
0.0317568
0.0319202
0.0320934
0.0322752
0.0324603
0.032648
0.0328362
0.0330212
0.0332014
0.0333832
0.0335647
0.0337453
0.0339292
0.034124
0.034323
0.034527
0.0347383
0.0349606
0.0351818
0.0354038
0.0356252
0.0358473