# vtk DataFile Version 3.0
LBM output step 1160
ASCII
DATASET STRUCTURED_POINTS
DIMENSIONS 400 100 1
ORIGIN 0 0 0
SPACING 1 1 1
POINT_DATA 40000
SCALARS velocity_magnitude double 1
LOOKUP_TABLE default
0
0
0
0
0
0
0
0
0
0
0
0
0
0
0
0
0
0
0
0
0
0
0
0
0
0
0
0
0
0
0
0
0
0
0
0
0
0
0
0
0
0
0
0
0
0
0
0
0
0
0
0
0
0
0
0
0
0
0
0
0
0
0
0
0
0
0
0
0
0
0
0
0
0
0
0
0
0
0
0
0
0
0
0
0
0
0
0
0
0
0
0
0
0
0
0
0
0
0
0
0
0
0
0
0
0
0
0
0
0
0
0
0
0
0
0
0
0
0
0
0
0
0
0
0
0
0
0
0
0
0
0
0
0
0
0
0
0
0
0
0
0
0
0
0
0
0
0
0
0
0
0
0
0
0
0
0
0
0
0
0
0
0
0
0
0
0
0
0
0
0
0
0
0
0
0
0
0
0
0
0
0
0
0
0
0
0
0
0
0
0
0
0
0
0
0
0
0
0
0
0
0
0
0
0
0
0
0
0
0
0
0
0
0
0
0
0
0
0
0
0
0
0
0
0
0
0
0
0
0
0
0
0
0
0
0
0
0
0
0
0
0
0
0
0
0
0
0
0
0
0
0
0
0
0
0
0
0
0
0
0
0
0
0
0
0
0
0
0
0
0
0
0
0
0
0
0
0
0
0
0
0
0
0
0
0
0
0
0
0
0
0
0
0
0
0
0
0
0
0
0
0
0
0
0
0
0
0
0
0
0
0
0
0
0
0
0
0
0
0
0
0
0
0
0
0
0
0
0
0
0
0
0
0
0
0
0
0
0
0
0
0
0
0
0
0
0
0
0
0
0
0
0
0
0
0
0
0
0
0
0
0
0
0
0
0
0
0
0
0
0
0
0
0
0
0
0
0
0
0
0
0
0
0
0
0
0
0
0
0
0
0
0
0
0
0
0
0
0
0
0.04
0.0139758
0.00838899
0.0129494
0.0154652
0.0150897
0.0120529
0.0114155
0.0114519
0.0114995
0.0111605
0.0111654
0.0109043
0.0107292
0.0106004
0.0105871
0.0104118
0.0102913
0.0101861
0.0101075
0.00996971
0.00988362
0.00979329
0.0097076
0.00960778
0.00954491
0.0094736
0.00940712
0.00934058
0.00929165
0.00923142
0.00917444
0.00911677
0.00906315
0.0089996
0.00893879
0.00887595
0.00881259
0.00874349
0.00867662
0.00860704
0.00853583
0.00846194
0.00838867
0.00831321
0.00823621
0.00815925
0.0080816
0.00800468
0.00792647
0.00785183
0.00777531
0.00770415
0.00763012
0.00756394
0.00749317
0.00743251
0.00736492
0.00731017
0.00724613
0.00719727
0.00713672
0.00709479
0.00703861
0.00700363
0.00695315
0.00692668
0.00688219
0.00686408
0.00682734
0.00681726
0.00678716
0.00678516
0.00676253
0.00676604
0.00674993
0.00675944
0.00674855
0.00676046
0.00675494
0.00676907
0.00676536
0.00677897
0.00677802
0.00678942
0.00678685
0.00679517
0.00679185
0.0067944
0.00678694
0.00678475
0.00677383
0.00676456
0.00674898
0.00673519
0.00671556
0.00669596
0.00667306
0.00665018
0.00662366
0.00659676
0.00656785
0.00653763
0.00650498
0.00647159
0.00643606
0.00639875
0.00635994
0.00632006
0.00627827
0.0062357
0.00619281
0.00614955
0.00610627
0.00606442
0.006024
0.00598535
0.00594976
0.00591846
0.00589182
0.00587186
0.00586146
0.00586337
0.00588092
0.00591984
0.00598608
0.00608496
0.00622262
0.00640562
0.0066372
0.00691783
0.00724646
0.007618
0.00802124
0.00844238
0.00886561
0.00927087
0.00963627
0.00994322
0.0101762
0.0103239
0.0103848
0.0103692
0.0102959
0.0101885
0.0100732
0.00997006
0.00988711
0.00982229
0.0097691
0.00972061
0.00967422
0.00963514
0.00961249
0.00961196
0.00963258
0.00966734
0.00970486
0.00973306
0.0097439
0.00973449
0.0097051
0.00965845
0.00960025
0.00953812
0.00947953
0.00943066
0.00939487
0.0093712
0.00935527
0.00934206
0.0093275
0.00930872
0.00928449
0.00925544
0.00922311
0.00918893
0.0091538
0.0091179
0.00908065
0.00904144
0.00900059
0.00895963
0.00892065
0.00888581
0.00885687
0.00883494
0.00882049
0.00881367
0.00881425
0.00882152
0.00883417
0.00885049
0.00886849
0.00888601
0.00890103
0.00891183
0.00891714
0.00891629
0.00890938
0.00889719
0.00888096
0.0088622
0.00884234
0.00882242
0.00880289
0.00878361
0.00876399
0.0087433
0.00872099
0.00869697
0.00867168
0.00864595
0.00862086
0.00859731
0.00857584
0.00855638
0.00853833
0.00852075
0.00850266
0.00848338
0.00846276
0.00844116
0.00841938
0.00839838
0.00837907
0.00836215
0.00834802
0.00833679
0.00832833
0.00832227
0.00831802
0.0083148
0.00831171
0.00830784
0.00830234
0.00829467
0.00828459
0.00827228
0.00825831
0.00824347
0.00822873
0.00821502
0.00820318
0.00819394
0.00818793
0.00818566
0.00818759
0.00819397
0.00820479
0.00821962
0.00823757
0.00825734
0.0082773
0.00829574
0.00831106
0.00832193
0.00832735
0.00832676
0.00831996
0.00830713
0.00828882
0.00826587
0.00823943
0.00821085
0.00818155
0.00815288
0.00812597
0.00810161
0.00808011
0.00806137
0.00804495
0.00803019
0.00801644
0.00800318
0.00799014
0.00797732
0.007965
0.00795365
0.00794384
0.00793617
0.00793113
0.00792914
0.00793045
0.00793519
0.00794338
0.00795498
0.00796987
0.00798783
0.00800857
0.00803165
0.00805654
0.0080826
0.00810912
0.00813534
0.00816051
0.00818391
0.00820492
0.00822306
0.00823807
0.00824997
0.00825913
0.00826627
0.00827244
0.00827896
0.0082873
0.00829888
0.00831493
0.00833626
0.00836315
0.00839526
0.00843163
0.00847078
0.0085108
0.00854959
0.00858505
0.00861524
0.00863858
0.00865397
0.00866085
0.00865931
0.00865009
0.00863459
0.00861474
0.00859282
0.00857116
0.00855176
0.00853599
0.00852436
0.00851646
0.00851118
0.00850703
0.00850251
0.00849658
0.00848879
0.00847933
0.00846885
0.00845813
0.00844784
0.0084384
0.00843004
0.00842292
0.00841737
0.00841396
0.00841346
0.00841669
0.00842428
0.00843657
0.00845353
0.00847483
0.00849994
0.00852819
0.0085588
0.00859085
0.00862334
0.00865526
0.00868576
0.00871429
0.00874063
0.00876483
0.008787
0.0088071
0.00882479
0.00883941
0.00885007
0.0088558
0.00885574
0.00884929
0.00883615
0.00881641
0.00879057
0.00875948
0.00872438
0.00868673
0.00864816
0.00861039
0.00857502
0.00854357
0.00851725
0.00849698
0.00848319
0.0084758
0.00847426
0.0084775
0.00848424
0.00849309
0.00850278
0.00851238
0.00852134
0.00852958
0.0085373
0.0085448
0.00855262
0.00856069
0.00856905
0.00857742
0.00858569
0.00859164
0.00859355
0.00859355
0.04
0.0230994
0.024769
0.0221987
0.0151219
0.0143242
0.0173586
0.0180098
0.0163747
0.0157388
0.0158416
0.0156709
0.0153198
0.0152592
0.0150947
0.0148202
0.0146364
0.0145724
0.0144026
0.0142189
0.0140999
0.0140046
0.0138629
0.0137534
0.0136795
0.0136045
0.0135221
0.0134732
0.0134356
0.013391
0.013348
0.0133189
0.0132829
0.0132383
0.0131945
0.0131521
0.0131009
0.0130467
0.0129943
0.0129405
0.0128827
0.0128254
0.01277
0.0127126
0.0126551
0.0125984
0.0125442
0.012488
0.0124358
0.0123828
0.0123359
0.0122861
0.012245
0.0122001
0.012167
0.0121262
0.0121009
0.0120658
0.0120493
0.0120178
0.0120108
0.0119853
0.0119871
0.0119659
0.0119799
0.0119651
0.0119884
0.0119814
0.0120182
0.012017
0.0120638
0.0120729
0.01213
0.0121439
0.0122109
0.0122344
0.0123054
0.0123334
0.0124117
0.0124448
0.0125206
0.0125575
0.0126348
0.0126703
0.0127402
0.0127771
0.0128412
0.012871
0.0129247
0.0129519
0.0129937
0.0130106
0.0130411
0.0130516
0.0130679
0.0130682
0.0130737
0.0130651
0.0130578
0.0130399
0.0130216
0.0129938
0.0129644
0.0129267
0.0128858
0.012839
0.0127881
0.0127307
0.0126712
0.0126071
0.0125385
0.012468
0.0123972
0.0123229
0.0122483
0.0121765
0.0121053
0.0120347
0.0119702
0.0119118
0.0118582
0.011815
0.0117875
0.0117763
0.0117868
0.011829
0.0119081
0.0120286
0.0121994
0.0124268
0.0127105
0.0130492
0.0134408
0.0138753
0.0143372
0.0148104
0.0152764
0.0157117
0.016094
0.0164068
0.0166379
0.0167818
0.0168454
0.0168473
0.0168109
0.01676
0.0167149
0.0166857
0.0166703
0.0166613
0.0166528
0.0166439
0.0166396
0.016649
0.01668
0.0167323
0.0167983
0.0168668
0.0169269
0.01697
0.0169922
0.0169941
0.0169785
0.0169496
0.0169146
0.0168816
0.0168568
0.0168431
0.0168399
0.0168437
0.0168494
0.0168526
0.016851
0.0168435
0.0168302
0.0168122
0.0167914
0.0167686
0.0167438
0.0167164
0.0166859
0.0166528
0.0166182
0.0165845
0.016554
0.0165284
0.016509
0.0164966
0.0164915
0.0164937
0.0165028
0.0165177
0.0165369
0.0165586
0.0165807
0.0166013
0.0166185
0.0166311
0.0166382
0.0166398
0.0166362
0.0166285
0.0166179
0.0166055
0.0165923
0.0165786
0.0165642
0.0165487
0.0165315
0.0165122
0.0164907
0.0164676
0.0164438
0.0164203
0.0163982
0.0163779
0.0163595
0.0163425
0.0163261
0.0163093
0.0162915
0.0162726
0.0162529
0.0162331
0.0162141
0.0161966
0.0161813
0.0161685
0.0161585
0.016151
0.0161457
0.0161421
0.0161393
0.0161367
0.0161332
0.0161281
0.0161208
0.016111
0.0160989
0.0160848
0.0160697
0.0160544
0.0160398
0.0160268
0.0160163
0.0160088
0.0160051
0.0160056
0.0160107
0.0160203
0.0160342
0.0160516
0.016071
0.016091
0.0161099
0.016126
0.016138
0.0161448
0.0161459
0.016141
0.0161302
0.0161142
0.0160936
0.0160695
0.0160434
0.0160166
0.0159903
0.0159658
0.0159439
0.0159248
0.0159085
0.0158946
0.0158826
0.0158717
0.0158617
0.0158521
0.015843
0.0158346
0.0158274
0.0158218
0.0158185
0.0158181
0.0158208
0.015827
0.015837
0.0158507
0.0158682
0.0158893
0.0159137
0.015941
0.0159709
0.0160026
0.0160356
0.0160691
0.0161023
0.0161346
0.0161652
0.0161936
0.0162193
0.0162421
0.016262
0.0162792
0.0162945
0.0163089
0.0163236
0.0163399
0.0163592
0.0163826
0.0164107
0.0164438
0.0164815
0.0165228
0.0165662
0.0166099
0.0166518
0.01669
0.0167226
0.0167481
0.0167655
0.0167743
0.0167747
0.0167675
0.016754
0.0167365
0.016717
0.0166981
0.0166818
0.0166693
0.0166614
0.0166574
0.0166564
0.0166567
0.0166568
0.0166556
0.0166525
0.0166477
0.0166419
0.0166357
0.0166299
0.0166249
0.0166209
0.0166183
0.0166174
0.0166188
0.0166234
0.016632
0.0166451
0.0166632
0.0166861
0.0167133
0.0167442
0.0167781
0.016814
0.0168509
0.0168879
0.0169239
0.0169579
0.0169896
0.0170186
0.0170449
0.0170686
0.0170896
0.0171075
0.0171217
0.0171313
0.0171354
0.0171334
0.0171248
0.0171096
0.0170879
0.0170605
0.0170284
0.0169928
0.0169552
0.0169173
0.0168806
0.0168467
0.016817
0.0167925
0.0167742
0.0167622
0.0167565
0.0167564
0.0167611
0.0167691
0.0167793
0.0167905
0.0168019
0.0168129
0.0168236
0.0168339
0.0168443
0.0168547
0.0168654
0.0168763
0.0168865
0.0168948
0.0169004
0.0169028
0.0169028
0.04
0.0239617
0.0221063
0.0191385
0.0202783
0.022375
0.0214184
0.0197595
0.0199319
0.0204385
0.0198889
0.0192788
0.0191468
0.0190383
0.018691
0.0184698
0.0183301
0.0181253
0.0178895
0.0177589
0.0176231
0.0174549
0.01731
0.0172215
0.0171203
0.0170247
0.0169624
0.0169248
0.0168796
0.0168487
0.0168338
0.0168189
0.0167943
0.016775
0.0167545
0.0167254
0.0166904
0.0166579
0.0166218
0.0165816
0.0165418
0.0165043
0.0164652
0.0164259
0.0163894
0.0163538
0.0163197
0.0162864
0.0162577
0.0162289
0.0162058
0.0161819
0.0161663
0.0161484
0.0161411
0.0161285
0.016131
0.0161251
0.0161368
0.0161364
0.0161603
0.0161658
0.0162001
0.0162126
0.0162606
0.0162779
0.0163385
0.0163642
0.0164373
0.0164676
0.0165549
0.0165926
0.0166894
0.0167328
0.0168425
0.0168902
0.0170061
0.0170606
0.0171835
0.0172387
0.0173639
0.0174241
0.0175473
0.0176048
0.0177252
0.0177828
0.017892
0.0179442
0.0180448
0.0180911
0.0181744
0.0182128
0.0182828
0.0183108
0.0183616
0.0183802
0.0184156
0.0184212
0.0184381
0.0184333
0.018434
0.0184141
0.0183977
0.0183663
0.0183324
0.0182853
0.0182374
0.0181776
0.0181126
0.018041
0.0179662
0.0178825
0.017797
0.0177095
0.0176185
0.017525
0.0174348
0.0173448
0.0172556
0.0171724
0.0170971
0.0170286
0.0169733
0.0169372
0.0169229
0.0169365
0.0169877
0.0170827
0.0172258
0.0174235
0.0176795
0.0179911
0.0183529
0.0187574
0.0191912
0.0196356
0.020071
0.0204772
0.0208326
0.021118
0.0213225
0.0214438
0.0214883
0.0214739
0.0214265
0.0213717
0.021328
0.0213041
0.0212981
0.0213008
0.0213037
0.021306
0.0213141
0.0213371
0.0213822
0.0214498
0.0215322
0.0216166
0.0216915
0.0217494
0.0217872
0.021805
0.0218058
0.0217948
0.0217785
0.0217641
0.0217583
0.021764
0.0217797
0.0218016
0.0218251
0.0218462
0.0218623
0.0218724
0.0218771
0.0218774
0.0218747
0.0218701
0.0218637
0.0218547
0.0218426
0.0218279
0.021812
0.021797
0.0217852
0.0217783
0.0217774
0.0217829
0.0217951
0.0218138
0.0218384
0.021868
0.021901
0.0219357
0.0219702
0.0220027
0.0220316
0.0220557
0.0220745
0.0220879
0.0220966
0.0221014
0.0221035
0.022104
0.0221034
0.0221022
0.0221003
0.022097
0.022092
0.0220848
0.0220756
0.0220649
0.0220534
0.0220421
0.0220319
0.0220232
0.0220159
0.0220095
0.0220033
0.0219965
0.0219885
0.0219794
0.0219693
0.0219589
0.0219491
0.0219405
0.0219339
0.0219296
0.0219277
0.0219283
0.0219309
0.021935
0.02194
0.021945
0.0219491
0.0219517
0.0219521
0.0219502
0.0219459
0.0219398
0.0219326
0.0219251
0.0219183
0.021913
0.02191
0.0219099
0.0219133
0.0219205
0.021932
0.0219477
0.0219672
0.0219896
0.0220137
0.0220381
0.0220611
0.0220812
0.0220973
0.0221083
0.0221137
0.0221134
0.0221075
0.0220966
0.0220815
0.0220632
0.022043
0.022022
0.0220016
0.0219827
0.0219661
0.0219521
0.0219407
0.0219315
0.021924
0.0219178
0.0219124
0.0219075
0.0219031
0.0218994
0.0218967
0.0218955
0.0218963
0.0218997
0.0219061
0.0219159
0.0219295
0.021947
0.0219685
0.0219938
0.0220227
0.0220548
0.0220895
0.0221262
0.0221641
0.0222025
0.0222406
0.0222776
0.0223128
0.0223454
0.022375
0.0224013
0.0224241
0.0224438
0.0224609
0.0224765
0.0224917
0.0225081
0.022527
0.0225495
0.0225764
0.0226081
0.0226442
0.0226841
0.0227262
0.022769
0.0228105
0.0228487
0.0228819
0.0229087
0.022928
0.0229393
0.0229427
0.0229391
0.0229299
0.022917
0.0229025
0.0228887
0.0228774
0.02287
0.0228666
0.022867
0.02287
0.0228741
0.0228779
0.0228804
0.0228812
0.0228806
0.0228791
0.0228774
0.0228761
0.0228754
0.0228756
0.0228769
0.0228797
0.0228845
0.0228922
0.0229036
0.0229193
0.0229394
0.0229638
0.022992
0.0230233
0.0230572
0.0230928
0.0231294
0.0231661
0.0232021
0.0232367
0.0232696
0.0233004
0.023329
0.0233554
0.0233792
0.0233998
0.0234165
0.0234283
0.0234344
0.0234343
0.0234275
0.0234142
0.0233947
0.0233698
0.0233406
0.0233084
0.0232744
0.0232403
0.0232075
0.0231774
0.0231512
0.0231299
0.0231141
0.0231043
0.0231002
0.0231012
0.0231065
0.0231148
0.0231252
0.0231364
0.0231478
0.023159
0.0231699
0.0231806
0.0231915
0.0232024
0.0232135
0.0232247
0.0232356
0.0232449
0.0232517
0.0232549
0.0232549
0.04
0.0257594
0.0270077
0.0270066
0.0267296
0.0241296
0.0225657
0.0235573
0.0242647
0.0231313
0.0222346
0.022423
0.0224338
0.0219126
0.0215567
0.0215025
0.0212828
0.0209844
0.0208151
0.0206979
0.0204818
0.0203039
0.0201962
0.0200832
0.0199408
0.0198554
0.0198003
0.0197402
0.0196877
0.0196757
0.0196674
0.0196543
0.0196491
0.0196557
0.0196498
0.0196384
0.019629
0.0196183
0.0195977
0.0195775
0.0195592
0.019539
0.0195162
0.0194969
0.0194791
0.0194609
0.0194446
0.0194313
0.0194204
0.0194105
0.0194055
0.0194013
0.0194031
0.0194047
0.0194142
0.0194218
0.0194409
0.019455
0.0194834
0.019505
0.0195454
0.019573
0.0196256
0.0196617
0.0197266
0.0197683
0.0198481
0.0198962
0.0199876
0.0200418
0.0201481
0.0202051
0.0203236
0.0203872
0.0205173
0.0205819
0.0207248
0.0207938
0.0209422
0.0210125
0.0211699
0.0212396
0.0213952
0.0214663
0.021622
0.0216869
0.0218341
0.0218984
0.022035
0.0220892
0.0222122
0.0222621
0.0223663
0.0224047
0.0224924
0.0225223
0.0225879
0.0226064
0.0226534
0.022659
0.0226845
0.0226773
0.0226816
0.022659
0.0226435
0.0226046
0.0225678
0.0225144
0.0224588
0.022388
0.0223168
0.0222343
0.022147
0.0220538
0.02196
0.0218589
0.0217579
0.0216581
0.0215586
0.0214599
0.0213695
0.0212871
0.0212145
0.0211591
0.0211276
0.0211231
0.0211536
0.0212287
0.0213536
0.0215319
0.0217676
0.0220609
0.0224054
0.0227914
0.0232066
0.0236341
0.0240523
0.0244394
0.0247757
0.0250428
0.0252272
0.0253265
0.02535
0.0253156
0.0252483
0.0251756
0.025118
0.0250821
0.025064
0.0250547
0.0250454
0.0250338
0.0250273
0.0250376
0.0250723
0.0251303
0.0252038
0.0252801
0.0253467
0.0253961
0.0254266
0.0254391
0.0254357
0.0254212
0.0254023
0.0253859
0.025378
0.0253816
0.0253956
0.0254154
0.0254364
0.0254554
0.0254704
0.0254803
0.0254853
0.0254868
0.0254858
0.0254831
0.0254789
0.0254728
0.0254641
0.0254532
0.0254418
0.0254319
0.0254256
0.0254246
0.0254297
0.0254413
0.0254593
0.0254835
0.0255133
0.0255477
0.0255853
0.0256245
0.0256634
0.0257004
0.0257341
0.0257635
0.0257881
0.0258079
0.0258236
0.0258359
0.0258456
0.0258536
0.0258604
0.0258662
0.0258708
0.0258738
0.025875
0.0258742
0.0258715
0.0258674
0.0258628
0.0258585
0.025855
0.0258526
0.0258514
0.0258507
0.02585
0.0258488
0.0258465
0.0258432
0.0258392
0.025835
0.0258313
0.0258289
0.0258282
0.0258297
0.0258336
0.0258399
0.0258483
0.0258582
0.025869
0.0258799
0.0258902
0.025899
0.0259058
0.0259105
0.0259131
0.0259139
0.0259136
0.0259131
0.0259133
0.0259148
0.0259186
0.0259251
0.0259349
0.0259484
0.0259657
0.0259867
0.026011
0.0260378
0.0260659
0.0260938
0.02612
0.0261433
0.0261623
0.0261763
0.0261848
0.0261876
0.0261851
0.0261777
0.0261662
0.0261516
0.026135
0.0261176
0.0261004
0.0260845
0.0260705
0.0260588
0.0260494
0.0260421
0.0260366
0.0260324
0.0260292
0.0260268
0.0260251
0.0260241
0.0260241
0.0260256
0.026029
0.0260347
0.0260434
0.0260556
0.0260717
0.0260921
0.0261167
0.0261457
0.0261787
0.0262151
0.0262545
0.0262959
0.0263387
0.0263819
0.0264247
0.0264662
0.0265056
0.0265422
0.0265753
0.0266045
0.0266296
0.0266509
0.0266689
0.0266846
0.0266992
0.0267142
0.026731
0.0267508
0.0267746
0.0268028
0.0268353
0.0268714
0.0269098
0.0269491
0.0269874
0.0270229
0.0270539
0.0270789
0.027097
0.0271076
0.027111
0.0271079
0.0270997
0.0270883
0.0270757
0.027064
0.0270549
0.0270495
0.0270481
0.0270501
0.0270545
0.0270599
0.027065
0.027069
0.0270715
0.027073
0.0270737
0.0270745
0.0270757
0.0270774
0.0270799
0.0270832
0.0270879
0.0270946
0.0271042
0.0271172
0.0271343
0.0271555
0.0271806
0.027209
0.0272401
0.0272732
0.0273078
0.0273433
0.027379
0.0274144
0.0274488
0.027482
0.0275136
0.0275434
0.0275711
0.027596
0.0276174
0.0276344
0.0276459
0.0276512
0.0276497
0.0276415
0.0276266
0.0276058
0.0275799
0.0275502
0.0275177
0.027484
0.0274504
0.0274182
0.0273885
0.0273624
0.0273408
0.0273242
0.0273129
0.0273068
0.0273053
0.0273076
0.0273128
0.0273199
0.027328
0.0273366
0.0273453
0.027354
0.027363
0.0273722
0.0273821
0.0273926
0.027403
0.0274131
0.0274221
0.0274296
0.0274339
0.0274339
0.04
0.0266404
0.0277445
0.0263952
0.0256218
0.0257315
0.0267638
0.0261284
0.0246988
0.0245596
0.0252217
0.0249173
0.0241347
0.0239539
0.0240309
0.0237533
0.0233892
0.0232662
0.0231398
0.0229006
0.022708
0.022607
0.0224551
0.0222891
0.0221807
0.0221036
0.0219993
0.0219227
0.0218871
0.0218619
0.0218322
0.0218314
0.0218443
0.0218521
0.021857
0.0218729
0.021883
0.0218844
0.0218849
0.0218883
0.0218848
0.0218793
0.0218761
0.0218738
0.0218688
0.0218661
0.0218661
0.0218666
0.0218686
0.0218735
0.0218813
0.0218901
0.0219034
0.0219177
0.0219374
0.0219577
0.0219855
0.0220118
0.0220492
0.0220839
0.0221314
0.0221737
0.0222345
0.0222845
0.0223566
0.0224149
0.0225005
0.0225632
0.0226619
0.0227309
0.0228412
0.022913
0.0230385
0.0231127
0.0232494
0.0233271
0.0234782
0.0235543
0.0237164
0.0237955
0.0239654
0.0240402
0.0242178
0.0242924
0.0244677
0.0245371
0.0247127
0.0247771
0.0249404
0.0249997
0.025154
0.0252046
0.02534
0.0253849
0.0255038
0.0255381
0.0256348
0.0256616
0.0257379
0.0257516
0.0258041
0.0258077
0.0258371
0.0258235
0.0258298
0.0258029
0.0257836
0.0257378
0.0256994
0.0256369
0.0255739
0.0254977
0.0254202
0.0253271
0.0252348
0.0251367
0.0250345
0.0249278
0.0248257
0.0247223
0.0246214
0.0245288
0.0244482
0.0243799
0.0243331
0.0243154
0.024332
0.0243895
0.0244973
0.0246605
0.0248799
0.0251555
0.0254842
0.0258559
0.0262557
0.0266673
0.0270712
0.0274442
0.0277641
0.0280138
0.0281812
0.0282619
0.0282644
0.0282096
0.0281244
0.0280352
0.0279632
0.027917
0.027891
0.0278728
0.0278534
0.0278315
0.0278138
0.0278119
0.0278358
0.0278852
0.0279501
0.0280172
0.0280749
0.0281159
0.0281376
0.0281422
0.0281326
0.0281123
0.0280869
0.0280644
0.0280506
0.0280475
0.028054
0.0280665
0.0280802
0.0280919
0.0281
0.0281039
0.0281034
0.0280993
0.028093
0.0280856
0.028077
0.0280668
0.0280546
0.0280408
0.0280267
0.0280145
0.0280065
0.028004
0.0280076
0.0280176
0.0280337
0.0280555
0.0280825
0.0281137
0.0281477
0.0281831
0.0282182
0.0282517
0.0282822
0.0283089
0.0283316
0.0283504
0.0283658
0.0283782
0.0283885
0.0283969
0.0284039
0.0284094
0.0284134
0.0284157
0.0284162
0.0284148
0.0284119
0.028408
0.0284039
0.0284001
0.0283971
0.0283949
0.0283934
0.0283923
0.028391
0.0283893
0.0283868
0.0283836
0.0283799
0.0283763
0.0283732
0.0283713
0.0283711
0.028373
0.0283773
0.0283839
0.0283927
0.0284032
0.0284147
0.0284264
0.0284377
0.0284478
0.0284563
0.0284628
0.0284674
0.0284704
0.0284725
0.0284743
0.0284768
0.0284807
0.0284868
0.0284955
0.0285074
0.0285226
0.0285413
0.0285632
0.0285879
0.0286144
0.0286417
0.0286686
0.0286935
0.0287153
0.028733
0.0287458
0.0287533
0.0287554
0.0287525
0.028745
0.0287337
0.0287195
0.0287034
0.0286864
0.0286695
0.0286536
0.0286394
0.0286272
0.0286172
0.0286092
0.0286031
0.0285985
0.0285951
0.0285928
0.0285914
0.0285909
0.0285915
0.0285934
0.0285971
0.028603
0.0286117
0.0286239
0.0286401
0.0286607
0.028686
0.0287159
0.0287501
0.0287881
0.0288292
0.0288725
0.0289171
0.0289622
0.0290067
0.0290498
0.0290906
0.0291282
0.029162
0.0291913
0.029216
0.0292361
0.0292522
0.0292653
0.0292766
0.0292874
0.0292993
0.0293137
0.0293314
0.0293532
0.0293789
0.0294082
0.0294399
0.0294727
0.0295049
0.0295347
0.0295605
0.029581
0.0295951
0.0296025
0.0296033
0.0295983
0.0295888
0.0295766
0.0295637
0.0295521
0.0295431
0.0295378
0.0295364
0.0295383
0.0295424
0.0295474
0.0295522
0.029556
0.0295587
0.0295605
0.029562
0.0295635
0.0295654
0.029568
0.0295711
0.029575
0.0295802
0.0295872
0.0295968
0.0296097
0.0296262
0.0296464
0.0296699
0.0296961
0.0297244
0.0297543
0.0297852
0.0298169
0.0298489
0.0298807
0.0299122
0.0299429
0.0299725
0.0300007
0.0300268
0.03005
0.0300693
0.0300836
0.030092
0.0300937
0.0300884
0.0300761
0.0300574
0.0300332
0.0300043
0.0299722
0.0299381
0.0299031
0.0298686
0.0298355
0.0298049
0.0297777
0.0297543
0.0297354
0.029721
0.029711
0.029705
0.0297024
0.0297024
0.0297043
0.0297074
0.0297114
0.0297161
0.0297213
0.0297274
0.0297342
0.0297421
0.0297508
0.0297602
0.0297696
0.0297782
0.0297853
0.0297897
0.0297897
0.04
0.0246241
0.0251731
0.0263664
0.027104
0.0269643
0.0266163
0.0259749
0.0262968
0.026683
0.0261787
0.0255059
0.0256267
0.0257985
0.0254299
0.0250396
0.0250119
0.0249607
0.0246958
0.0244934
0.0244146
0.0242819
0.0240919
0.0239741
0.0238843
0.0237592
0.0236424
0.023581
0.0235238
0.0234641
0.0234343
0.0234365
0.0234356
0.0234411
0.0234635
0.0234902
0.0235062
0.0235246
0.0235457
0.0235611
0.02357
0.0235821
0.0235934
0.023601
0.0236085
0.0236191
0.0236287
0.0236384
0.0236507
0.0236647
0.0236794
0.0236963
0.0237159
0.0237364
0.0237608
0.0237871
0.0238176
0.0238498
0.0238899
0.0239298
0.0239792
0.0240291
0.0240905
0.0241477
0.0242214
0.0242878
0.024372
0.024444
0.0245417
0.0246179
0.0247261
0.0248073
0.0249288
0.0250101
0.0251461
0.0252304
0.0253782
0.0254615
0.0256264
0.0257076
0.025881
0.0259618
0.0261472
0.02622
0.0264089
0.0264812
0.0266705
0.0267321
0.026918
0.0269776
0.0271513
0.0272006
0.027364
0.0274088
0.0275507
0.0275876
0.0277134
0.0277417
0.0278422
0.0278633
0.0279417
0.0279494
0.0280031
0.0279998
0.0280259
0.0280068
0.0280096
0.0279726
0.0279482
0.0278965
0.0278486
0.0277767
0.0277098
0.0276249
0.0275375
0.0274405
0.0273443
0.0272377
0.0271328
0.027028
0.0269253
0.0268254
0.0267381
0.0266638
0.026608
0.026579
0.0265856
0.0266325
0.0267277
0.0268779
0.0270858
0.0273496
0.0276649
0.0280237
0.0284119
0.0288107
0.0292001
0.0295591
0.029865
0.0300981
0.0302472
0.03031
0.0302941
0.0302198
0.030117
0.0300144
0.0299318
0.0298767
0.029844
0.0298195
0.029791
0.0297575
0.0297284
0.0297158
0.0297292
0.0297695
0.0298267
0.0298853
0.029933
0.0299644
0.0299781
0.0299755
0.0299599
0.029935
0.0299055
0.0298778
0.0298584
0.0298499
0.02985
0.0298549
0.029861
0.0298653
0.0298664
0.0298639
0.029858
0.0298488
0.0298375
0.0298251
0.0298119
0.0297975
0.0297814
0.0297642
0.0297473
0.0297328
0.0297226
0.0297182
0.0297199
0.0297275
0.0297409
0.0297594
0.0297824
0.029809
0.0298378
0.0298676
0.0298971
0.0299249
0.0299503
0.0299725
0.0299913
0.0300072
0.0300203
0.0300312
0.03004
0.0300469
0.0300519
0.030055
0.0300561
0.0300551
0.0300522
0.0300476
0.0300419
0.0300356
0.0300293
0.0300234
0.0300181
0.0300134
0.0300089
0.0300044
0.0299995
0.0299943
0.0299885
0.0299824
0.0299761
0.0299701
0.0299647
0.0299604
0.0299578
0.0299573
0.0299591
0.0299634
0.0299698
0.0299781
0.0299875
0.0299974
0.030007
0.0300156
0.0300229
0.0300285
0.0300323
0.0300348
0.0300364
0.0300379
0.0300401
0.0300439
0.0300498
0.0300583
0.0300697
0.0300842
0.0301016
0.0301216
0.0301437
0.030167
0.0301906
0.0302131
0.0302336
0.030251
0.0302643
0.030273
0.0302768
0.0302756
0.0302697
0.0302597
0.0302461
0.0302299
0.0302118
0.0301928
0.0301738
0.0301556
0.0301387
0.0301237
0.0301106
0.0300997
0.0300907
0.0300835
0.0300779
0.0300737
0.0300707
0.0300688
0.0300681
0.0300686
0.0300708
0.0300749
0.0300818
0.030092
0.0301061
0.0301248
0.0301483
0.0301766
0.0302095
0.0302463
0.0302864
0.0303288
0.0303726
0.0304168
0.0304605
0.0305026
0.0305421
0.0305783
0.0306101
0.0306372
0.030659
0.0306758
0.030688
0.0306964
0.0307023
0.0307071
0.0307123
0.0307193
0.0307293
0.0307429
0.0307604
0.0307814
0.0308049
0.0308298
0.0308545
0.0308772
0.0308965
0.030911
0.0309197
0.0309224
0.0309191
0.0309107
0.0308985
0.0308843
0.0308698
0.0308567
0.0308465
0.0308398
0.0308368
0.0308369
0.0308391
0.0308422
0.0308452
0.0308476
0.0308492
0.0308504
0.0308515
0.030853
0.0308549
0.0308574
0.0308604
0.0308641
0.0308688
0.0308754
0.0308844
0.0308963
0.0309115
0.0309297
0.0309506
0.0309735
0.0309978
0.0310233
0.0310496
0.0310765
0.0311039
0.0311316
0.0311594
0.031187
0.0312141
0.03124
0.0312639
0.0312846
0.0313011
0.0313121
0.0313166
0.0313141
0.0313044
0.0312879
0.0312651
0.0312372
0.0312053
0.0311707
0.0311348
0.0310985
0.031063
0.0310291
0.0309975
0.0309688
0.0309435
0.0309219
0.0309041
0.0308899
0.0308791
0.0308712
0.0308657
0.0308622
0.0308602
0.0308595
0.0308601
0.0308619
0.0308651
0.0308698
0.030876
0.0308834
0.0308918
0.0309006
0.0309091
0.0309164
0.0309216
0.0309216
0.04
0.0246296
0.0253587
0.0258528
0.0260607
0.0261104
0.0262837
0.0267196
0.0270316
0.0264298
0.0261519
0.0265972
0.0267401
0.0262119
0.0259832
0.0261793
0.0261345
0.0258025
0.0256698
0.0256875
0.0255521
0.0253506
0.0252643
0.0251962
0.0250481
0.0249197
0.0248498
0.0247667
0.0246642
0.0246078
0.0245822
0.0245514
0.0245324
0.0245483
0.0245701
0.0245859
0.0246108
0.0246457
0.0246713
0.0246918
0.0247166
0.0247407
0.0247568
0.0247735
0.0247927
0.0248094
0.0248239
0.0248416
0.0248598
0.024877
0.0248958
0.0249167
0.0249378
0.0249604
0.0249861
0.0250129
0.0250432
0.025077
0.0251153
0.025156
0.0252049
0.025256
0.0253146
0.025375
0.0254464
0.0255145
0.0255957
0.0256722
0.0257642
0.0258443
0.0259484
0.0260331
0.0261476
0.0262351
0.0263648
0.0264516
0.0265953
0.0266844
0.0268427
0.0269268
0.0271018
0.0271845
0.0273681
0.0274443
0.0276411
0.0277106
0.0279068
0.0279712
0.0281706
0.0282248
0.0284145
0.0284657
0.028646
0.0286871
0.0288508
0.0288887
0.0290338
0.0290626
0.0291853
0.0292087
0.0293078
0.0293194
0.0293922
0.0293952
0.0294407
0.0294263
0.0294463
0.0294187
0.0294076
0.0293613
0.0293293
0.029264
0.0292036
0.0291259
0.0290483
0.0289511
0.0288584
0.0287568
0.0286519
0.0285432
0.0284416
0.0283397
0.0282456
0.0281658
0.0281061
0.028069
0.0280661
0.0281055
0.0281929
0.0283331
0.0285315
0.0287875
0.0290952
0.0294451
0.029825
0.0302169
0.0305985
0.0309474
0.0312431
0.0314657
0.0316011
0.0316472
0.0316147
0.0315238
0.0314035
0.0312858
0.0311929
0.0311303
0.0310904
0.0310593
0.0310243
0.0309815
0.0309409
0.0309182
0.0309232
0.0309549
0.0310039
0.0310553
0.0310952
0.0311177
0.031124
0.0311164
0.0310964
0.0310674
0.0310343
0.0310027
0.030978
0.0309635
0.0309576
0.0309558
0.0309544
0.0309517
0.030947
0.0309391
0.0309282
0.0309146
0.030899
0.030882
0.0308646
0.0308465
0.0308274
0.0308075
0.0307886
0.0307725
0.0307609
0.030755
0.0307552
0.030761
0.030772
0.0307875
0.0308069
0.0308291
0.030853
0.0308776
0.0309016
0.0309243
0.0309448
0.0309629
0.0309785
0.0309919
0.0310034
0.031013
0.0310207
0.0310263
0.0310295
0.0310302
0.0310282
0.0310239
0.0310174
0.0310095
0.0310009
0.030992
0.0309835
0.0309754
0.0309678
0.0309603
0.0309526
0.0309446
0.0309361
0.0309272
0.030918
0.0309087
0.0308997
0.0308911
0.0308832
0.0308764
0.0308713
0.0308682
0.0308674
0.0308691
0.0308731
0.0308791
0.0308864
0.0308943
0.0309021
0.0309093
0.0309152
0.0309197
0.0309225
0.0309241
0.030925
0.0309258
0.0309275
0.0309308
0.0309362
0.0309442
0.0309549
0.0309682
0.0309839
0.0310016
0.0310206
0.0310401
0.0310591
0.0310768
0.0310921
0.0311043
0.0311127
0.0311167
0.0311162
0.0311112
0.0311019
0.0310887
0.0310724
0.0310535
0.0310329
0.0310113
0.0309896
0.0309685
0.0309485
0.0309303
0.0309139
0.0308998
0.0308878
0.0308779
0.03087
0.0308639
0.0308593
0.030856
0.030854
0.0308532
0.0308539
0.0308564
0.0308614
0.0308696
0.0308815
0.0308979
0.0309191
0.0309451
0.0309756
0.0310102
0.031048
0.0310881
0.0311296
0.0311715
0.0312128
0.0312524
0.0312893
0.0313226
0.0313513
0.031375
0.0313931
0.0314058
0.0314134
0.0314168
0.0314172
0.031416
0.0314146
0.0314146
0.0314172
0.0314231
0.0314328
0.0314459
0.0314617
0.0314791
0.0314964
0.0315123
0.031525
0.0315334
0.0315366
0.0315342
0.0315265
0.0315143
0.031499
0.0314822
0.0314656
0.0314506
0.0314386
0.03143
0.0314251
0.0314231
0.0314231
0.0314242
0.0314254
0.0314264
0.031427
0.0314276
0.0314285
0.0314298
0.0314318
0.0314344
0.0314375
0.0314413
0.0314462
0.0314528
0.0314617
0.0314732
0.0314875
0.0315042
0.0315229
0.031543
0.0315641
0.0315859
0.0316082
0.0316313
0.031655
0.0316793
0.0317043
0.0317295
0.0317545
0.0317785
0.0318004
0.0318189
0.0318326
0.0318403
0.0318413
0.031835
0.0318215
0.0318012
0.0317752
0.0317445
0.0317104
0.0316743
0.0316375
0.0316009
0.0315654
0.0315316
0.0314999
0.0314707
0.0314443
0.0314209
0.0314005
0.0313829
0.031368
0.0313557
0.0313455
0.0313374
0.0313311
0.0313267
0.0313242
0.0313236
0.0313251
0.0313286
0.0313342
0.0313416
0.0313502
0.0313595
0.0313684
0.0313765
0.0313826
0.0313826
0.04
0.0252801
0.025829
0.0255133
0.0258732
0.0262594
0.0264218
0.0264357
0.0263731
0.0264643
0.0268672
0.0267896
0.0264304
0.0264661
0.0267534
0.0266303
0.0263429
0.0263408
0.0264343
0.0262954
0.0261184
0.0260902
0.0260575
0.0259182
0.0257999
0.0257438
0.025655
0.0255365
0.0254583
0.0254085
0.0253438
0.0252945
0.0252837
0.0252852
0.0252838
0.0253012
0.0253335
0.0253613
0.0253854
0.0254178
0.0254488
0.0254723
0.0254953
0.0255214
0.0255429
0.0255617
0.0255827
0.0256039
0.0256223
0.025642
0.0256631
0.0256831
0.0257037
0.0257267
0.0257503
0.0257752
0.0258043
0.0258361
0.025871
0.0259111
0.0259573
0.026006
0.026062
0.0261226
0.0261894
0.0262573
0.0263357
0.0264122
0.0264988
0.0265814
0.0266801
0.0267657
0.0268754
0.0269659
0.0270878
0.0271784
0.0273178
0.0274082
0.0275605
0.0276506
0.0278219
0.027904
0.0280883
0.0281696
0.0283652
0.0284338
0.0286388
0.0287048
0.0289079
0.028962
0.0291665
0.0292161
0.0294057
0.0294476
0.0296291
0.0296645
0.0298222