# vtk DataFile Version 3.0
LBM output step 180
ASCII
DATASET STRUCTURED_POINTS
DIMENSIONS 400 100 1
ORIGIN 0 0 0
SPACING 1 1 1
POINT_DATA 40000
SCALARS velocity_magnitude double 1
LOOKUP_TABLE default
0
0
0
0
0
0
0
0
0
0
0
0
0
0
0
0
0
0
0
0
0
0
0
0
0
0
0
0
0
0
0
0
0
0
0
0
0
0
0
0
0
0
0
0
0
0
0
0
0
0
0
0
0
0
0
0
0
0
0
0
0
0
0
0
0
0
0
0
0
0
0
0
0
0
0
0
0
0
0
0
0
0
0
0
0
0
0
0
0
0
0
0
0
0
0
0
0
0
0
0
0
0
0
0
0
0
0
0
0
0
0
0
0
0
0
0
0
0
0
0
0
0
0
0
0
0
0
0
0
0
0
0
0
0
0
0
0
0
0
0
0
0
0
0
0
0
0
0
0
0
0
0
0
0
0
0
0
0
0
0
0
0
0
0
0
0
0
0
0
0
0
0
0
0
0
0
0
0
0
0
0
0
0
0
0
0
0
0
0
0
0
0
0
0
0
0
0
0
0
0
0
0
0
0
0
0
0
0
0
0
0
0
0
0
0
0
0
0
0
0
0
0
0
0
0
0
0
0
0
0
0
0
0
0
0
0
0
0
0
0
0
0
0
0
0
0
0
0
0
0
0
0
0
0
0
0
0
0
0
0
0
0
0
0
0
0
0
0
0
0
0
0
0
0
0
0
0
0
0
0
0
0
0
0
0
0
0
0
0
0
0
0
0
0
0
0
0
0
0
0
0
0
0
0
0
0
0
0
0
0
0
0
0
0
0
0
0
0
0
0
0
0
0
0
0
0
0
0
0
0
0
0
0
0
0
0
0
0
0
0
0
0
0
0
0
0
0
0
0
0
0
0
0
0
0
0
0
0
0
0
0
0
0
0
0
0
0
0
0
0
0
0
0
0
0
0
0
0
0
0
0
0
0
0
0
0
0
0
0
0
0
0
0
0
0
0
0
0
0
0
0.04
0.0150883
0.00983958
0.0168047
0.0188989
0.0186842
0.016518
0.0168428
0.0172392
0.0173069
0.016911
0.0166946
0.0163347
0.0159245
0.0156513
0.0153891
0.0150582
0.0147223
0.0144659
0.0142225
0.0139542
0.0137322
0.0135318
0.0133467
0.0131609
0.0130235
0.0128929
0.0127808
0.0126795
0.0126115
0.0125467
0.0125008
0.0124689
0.0124577
0.0124523
0.0124628
0.0124849
0.0125199
0.0125569
0.0126073
0.0126614
0.0127213
0.0127841
0.0128512
0.0129213
0.0129933
0.0130659
0.013145
0.0132205
0.0132993
0.0133825
0.0134626
0.0135457
0.013633
0.0137174
0.0138087
0.0138999
0.0139882
0.0140854
0.0141828
0.0142768
0.0143827
0.0144857
0.0145846
0.0147019
0.0148157
0.0149128
0.015034
0.0151705
0.0152813
0.015397
0.0155428
0.0156752
0.0157974
0.0159489
0.0160968
0.0162235
0.0163927
0.0165885
0.0167151
0.0168247
0.0170534
0.0173189
0.0174334
0.0174974
0.0177742
0.0181764
0.018339
0.0182651
0.0184275
0.0190312
0.0195765
0.0195205
0.0191524
0.0193572
0.020436
0.0215166
0.0214529
0.0202488
0.0193305
0.0202651
0.0231209
0.025911
0.0258894
0.0219587
0.0156664
0.00957419
0.00517415
0.0025511
0.00117371
0.00051072
0.000211761
8.40615e-05
3.20897e-05
1.18563e-05
4.28197e-06
1.55131e-06
5.74143e-07
2.29358e-07
1.09484e-07
4.85155e-08
3.28945e-08
1.65857e-08
1.29768e-08
1.52974e-08
8.32773e-09
2.33459e-09
2.22438e-09
2.04858e-09
4.04788e-09
4.19196e-09
2.03749e-09
6.24834e-09
5.25208e-09
3.40414e-09
3.294e-09
2.40532e-09
3.33364e-09
8.52131e-10
2.51118e-09
2.56533e-09
2.04519e-09
4.13371e-09
1.08498e-09
2.25161e-09
1.11194e-09
1.8923e-09
2.20309e-09
5.01875e-10
4.67938e-10
3.31249e-10
6.48642e-10
4.99844e-10
3.44027e-10
2.61976e-10
2.79083e-10
2.40686e-10
1.92922e-10
1.65374e-10
1.35547e-10
1.17115e-10
9.23708e-11
7.35705e-11
6.67895e-11
3.56311e-11
3.30212e-11
3.26518e-11
1.01656e-11
8.65014e-12
1.70257e-11
1.7218e-12
2.35229e-12
5.70743e-12
3.21028e-12
1.31876e-12
7.1518e-13
7.2016e-12
5.3779e-12
9.67789e-12
4.65171e-12
3.92813e-12
0
0
0
0
0
0
0
0
0
0
0
0
0
0
0
0
0
0
0
0
0
0
0
0
0
0
0
0
0
0
0
0
0
0
0
0
0
0
0
0
0
0
0
0
0
0
0
0
0
0
0
0
0
0
0
0
0
0
0
0
0
0
0
0
0
0
0
0
0
0
0
0
0
0
0
0
0
0
0
0
0
0
0
0
0
0
0
0
0
0
0
0
0
0
0
0
0
0
0
0
0
0
0
0
0
0
0
0
0
0
0
0
0
0
0
0
0
0
0
0
0
0
0
0
0
0
0
0
0
0
0
0
0
0
0
0
0
0
0
0
0
0
0
0
0
0
0
0
0
0
0
0
0
0
0
0
0
0
0
0
0
0
0
0
0
0
0
0
0
0
0
0
0
0
0
0
0
0
0
0
0
0
0
0
0
0
0
0
0
0
0
0
0
0
0
0
0
0
0
0
0
0
0
0
0
0
0
0
0
0
0
0
0
0
0
0
0
0
0
0.04
0.0222705
0.022201
0.0198062
0.0139728
0.0154791
0.0198395
0.0212505
0.0204594
0.0204617
0.0210968
0.0210996
0.0210306
0.020939
0.0210022
0.0207399
0.0207513
0.020707
0.0206997
0.0205832
0.0206008
0.0206002
0.020589
0.0205829
0.0206202
0.0206492
0.0206686
0.0207114
0.0207626
0.0208077
0.0208544
0.0209186
0.0209823
0.0210423
0.0211071
0.0211761
0.0212405
0.0213044
0.0213705
0.0214392
0.0215046
0.0215721
0.0216434
0.0217133
0.0217851
0.0218578
0.0219312
0.0220072
0.0220802
0.0221557
0.0222347
0.022309
0.0223863
0.0224656
0.022541
0.0226209
0.0227002
0.0227765
0.0228602
0.0229401
0.0230164
0.0231037
0.0231847
0.0232584
0.0233502
0.0234382
0.0235071
0.0235954
0.0236944
0.0237646
0.0238412
0.0239459
0.0240276
0.0240946
0.0241969
0.0242913
0.0243436
0.0244294
0.0245583
0.0246232
0.0246431
0.024759
0.0249221
0.0249455
0.0248958
0.0250234
0.0252763
0.0253166
0.0251151
0.0250971
0.0254702
0.025786
0.0255403
0.0249929
0.024961
0.0257228
0.0264505
0.0260567
0.0245518
0.0233031
0.0238234
0.0261956
0.0284863
0.027961
0.023501
0.0166833
0.0101546
0.00546345
0.0026798
0.0012252
0.000528725
0.000216621
8.43959e-05
3.12192e-05
1.09227e-05
3.57623e-06
1.0654e-06
2.63497e-07
4.40779e-08
2.16959e-08
2.62468e-08
2.46317e-08
1.56983e-08
1.02335e-08
4.34187e-09
8.45707e-09
3.28453e-09
3.42401e-09
2.25925e-09
5.32934e-09
4.03137e-09
1.40357e-09
4.47787e-09
2.23957e-09
4.05989e-09
4.52089e-09
3.22486e-09
8.47872e-10
3.86819e-09
4.06611e-09
1.18489e-10
1.59112e-09
1.52489e-09
2.87875e-09
1.76082e-09
1.61484e-09
1.44489e-09
1.04706e-09
1.70915e-09
8.68427e-10
5.83999e-10
4.88232e-10
6.27769e-10
5.05417e-10
4.11065e-10
4.26631e-10
3.88653e-10
3.06538e-10
2.78379e-10
2.79089e-10
2.26374e-10
1.70034e-10
1.69007e-10
1.65234e-10
1.06692e-10
1.04788e-10
9.73968e-11
7.87517e-11
5.75832e-11
4.84892e-11
5.13273e-11
2.5371e-11
2.24312e-11
2.47727e-11
1.11295e-11
1.54152e-11
7.21351e-12
1.03448e-11
4.00215e-12
4.22042e-12
3.83154e-12
0
0
0
0
0
0
0
0
0
0
0
0
0
0
0
0
0
0
0
0
0
0
0
0
0
0
0
0
0
0
0
0
0
0
0
0
0
0
0
0
0
0
0
0
0
0
0
0
0
0
0
0
0
0
0
0
0
0
0
0
0
0
0
0
0
0
0
0
0
0
0
0
0
0
0
0
0
0
0
0
0
0
0
0
0
0
0
0
0
0
0
0
0
0
0
0
0
0
0
0
0
0
0
0
0
0
0
0
0
0
0
0
0
0
0
0
0
0
0
0
0
0
0
0
0
0
0
0
0
0
0
0
0
0
0
0
0
0
0
0
0
0
0
0
0
0
0
0
0
0
0
0
0
0
0
0
0
0
0
0
0
0
0
0
0
0
0
0
0
0
0
0
0
0
0
0
0
0
0
0
0
0
0
0
0
0
0
0
0
0
0
0
0
0
0
0
0
0
0
0
0
0
0
0
0
0
0
0
0
0
0
0
0
0
0
0
0
0
0
0.04
0.0243496
0.0216605
0.0183599
0.0195534
0.0221753
0.0214505
0.020775
0.0220615
0.023205
0.023236
0.0229639
0.0234562
0.0235586
0.0237069
0.0236081
0.0238907
0.0238372
0.0239416
0.0239679
0.0241001
0.0241011
0.0241633
0.0242267
0.0242863
0.0243164
0.0243661
0.0244194
0.0244514
0.0244823
0.0245214
0.024558
0.0245832
0.0246119
0.0246424
0.024666
0.0246856
0.0247101
0.0247324
0.0247536
0.024774
0.0247984
0.0248228
0.0248445
0.0248701
0.0248963
0.0249194
0.0249459
0.0249705
0.0249953
0.0250209
0.0250419
0.0250665
0.0250903
0.025107
0.02513
0.0251517
0.0251655
0.0251868
0.0252052
0.0252143
0.0252346
0.0252521
0.0252557
0.0252729
0.025292
0.0252919
0.0253022
0.0253212
0.0253171
0.0253196
0.0253445
0.0253412
0.0253229
0.0253468
0.0253636
0.0253244
0.0253134
0.0253629
0.0253564
0.0252829
0.0252903
0.0253661
0.0253235
0.0251886
0.0252047
0.0253638
0.02535
0.0250892
0.0249593
0.025202
0.0254493
0.0252099
0.0246562
0.0245153
0.0251014
0.0257403
0.0254272
0.0240601
0.0228212
0.0231718
0.0253473
0.0276317
0.0273576
0.0232532
0.0166905
0.0102545
0.00555916
0.0027449
0.00126368
0.000550082
0.000228132
9.05564e-05
3.45536e-05
1.2738e-05
4.59754e-06
1.64721e-06
6.1258e-07
2.4583e-07
1.03652e-07
6.01317e-08
2.74337e-08
2.18963e-08
1.1468e-08
7.58095e-09
7.05257e-09
1.47099e-09
5.86719e-09
4.78982e-09
2.58286e-09
2.58195e-09
1.95588e-09
4.32534e-09
2.92172e-09
3.49941e-09
4.27884e-09
3.23599e-09
2.55088e-09
1.87859e-09
4.51514e-09
1.91559e-09
2.69391e-09
2.50107e-09
9.19904e-10
1.2582e-09
5.16216e-10
1.81814e-09
5.95542e-10
1.15288e-09
4.8921e-10
3.52451e-10
2.95551e-10
2.59344e-10
1.74898e-10
1.12324e-10
1.63932e-10
1.56479e-10
1.06119e-10
1.11168e-10
1.12047e-10
1.01279e-10
7.21477e-11
6.52581e-11
8.63017e-11
5.72724e-11
4.07061e-11
6.69589e-11
4.26198e-11
3.22524e-11
3.81891e-11
2.73808e-11
2.04277e-11
1.53509e-11
1.29253e-11
1.406e-11
7.84122e-12
7.66982e-12
9.09204e-12
3.86623e-12
4.16537e-12
3.71576e-12
0
0
0
0
0
0
0
0
0
0
0
0
0
0
0
0
0
0
0
0
0
0
0
0
0
0
0
0
0
0
0
0
0
0
0
0
0
0
0
0
0
0
0
0
0
0
0
0
0
0
0
0
0
0
0
0
0
0
0
0
0
0
0
0
0
0
0
0
0
0
0
0
0
0
0
0
0
0
0
0
0
0
0
0
0
0
0
0
0
0
0
0
0
0
0
0
0
0
0
0
0
0
0
0
0
0
0
0
0
0
0
0
0
0
0
0
0
0
0
0
0
0
0
0
0
0
0
0
0
0
0
0
0
0
0
0
0
0
0
0
0
0
0
0
0
0
0
0
0
0
0
0
0
0
0
0
0
0
0
0
0
0
0
0
0
0
0
0
0
0
0
0
0
0
0
0
0
0
0
0
0
0
0
0
0
0
0
0
0
0
0
0
0
0
0
0
0
0
0
0
0
0
0
0
0
0
0
0
0
0
0
0
0
0
0
0
0
0
0
0.04
0.026325
0.0276807
0.0271129
0.026104
0.0232809
0.0218683
0.0234152
0.02431
0.0235956
0.0234841
0.0241181
0.024688
0.0243591
0.0246094
0.0247219
0.0249797
0.0248253
0.0250359
0.0250718
0.0251407
0.02512
0.0252183
0.0252427
0.0252478
0.0252668
0.0253028
0.025308
0.0253033
0.0253199
0.0253269
0.0253202
0.0253148
0.0253191
0.0253134
0.0253034
0.0252981
0.0252957
0.0252853
0.025279
0.0252747
0.0252707
0.0252647
0.0252606
0.0252602
0.025258
0.0252544
0.0252573
0.0252568
0.0252559
0.0252566
0.0252539
0.0252541
0.0252548
0.0252498
0.0252502
0.0252482
0.0252404
0.0252399
0.0252345
0.025222
0.0252251
0.0252247
0.0252076
0.0252033
0.0252032
0.0251868
0.025183
0.0251858
0.0251656
0.0251602
0.0251784
0.0251536
0.0251114
0.0251356
0.0251654
0.0251174
0.0250841
0.0251332
0.02514
0.0250566
0.0250419
0.0251298
0.0251314
0.0250169
0.0250043
0.0251337
0.0251364
0.0249233
0.0248312
0.0250887
0.0253424
0.0251076
0.024549
0.0244024
0.025017
0.0257345
0.0255109
0.024172
0.0228584
0.0230855
0.0252241
0.0276476
0.027613
0.0236726
0.0171067
0.0105555
0.00573298
0.00283018
0.00130037
0.000563741
0.000232088
9.09313e-05
3.38858e-05
1.19765e-05
3.97383e-06
1.21844e-06
3.2654e-07
6.4297e-08
3.0654e-08
2.88162e-08
1.56869e-08
1.45597e-08
9.88056e-09
8.56236e-09
4.55236e-09
4.37507e-09
4.63165e-09
2.94519e-09
2.90162e-09
2.0118e-09
1.9365e-09
2.19216e-09
2.22835e-09
2.81691e-09
1.41518e-09
4.81822e-09
2.01123e-09
3.71207e-09
2.05315e-09
1.05281e-09
3.47999e-10
8.17056e-10
2.16471e-09
3.49163e-10
2.27354e-09
7.90367e-10
1.28364e-09
8.4737e-10
5.12445e-10
3.70819e-10
1.37123e-10
1.89741e-10
1.42103e-10
1.32402e-10
6.06646e-11
4.3454e-11
6.20459e-11
3.23981e-11
1.15182e-11
1.48864e-11
7.932e-12
8.71473e-12
1.29854e-11
1.94545e-11
2.98349e-12
2.8596e-11
2.66465e-11
5.0334e-12
2.90239e-11
1.50899e-11
8.28921e-12
1.39382e-11
5.78413e-12
1.0751e-11
6.63589e-12
4.4746e-12
8.67192e-12
3.56258e-12
4.05743e-12
3.58169e-12
0
0
0
0
0
0
0
0
0
0
0
0
0
0
0
0
0
0
0
0
0
0
0
0
0
0
0
0
0
0
0
0
0
0
0
0
0
0
0
0
0
0
0
0
0
0
0
0
0
0
0
0
0
0
0
0
0
0
0
0
0
0
0
0
0
0
0
0
0
0
0
0
0
0
0
0
0
0
0
0
0
0
0
0
0
0
0
0
0
0
0
0
0
0
0
0
0
0
0
0
0
0
0
0
0
0
0
0
0
0
0
0
0
0
0
0
0
0
0
0
0
0
0
0
0
0
0
0
0
0
0
0
0
0
0
0
0
0
0
0
0
0
0
0
0
0
0
0
0
0
0
0
0
0
0
0
0
0
0
0
0
0
0
0
0
0
0
0
0
0
0
0
0
0
0
0
0
0
0
0
0
0
0
0
0
0
0
0
0
0
0
0
0
0
0
0
0
0
0
0
0
0
0
0
0
0
0
0
0
0
0
0
0
0
0
0
0
0
0
0.04
0.0266409
0.0277524
0.0263775
0.0254079
0.025037
0.0255802
0.0247663
0.0234332
0.0237093
0.0247988
0.024643
0.0244027
0.0244569
0.0250788
0.0248757
0.0249743
0.0249809
0.025223
0.0251084
0.0251892
0.0252317
0.0252808
0.0252468
0.0252853
0.0253155
0.0253079
0.0253013
0.0253173
0.0253226
0.0253056
0.0253037
0.0253058
0.0252962
0.0252812
0.0252763
0.0252677
0.0252531
0.0252386
0.0252318
0.0252184
0.0252052
0.0251972
0.0251901
0.0251828
0.025177
0.0251719
0.0251709
0.0251665
0.0251658
0.0251682
0.0251655
0.0251669
0.0251701
0.0251648
0.0251652
0.0251664
0.0251623
0.0251665
0.0251658
0.0251539
0.0251573
0.0251605
0.0251464
0.0251453
0.0251528
0.0251453
0.0251453
0.0251461
0.0251235
0.0251237
0.0251561
0.0251415
0.0251009
0.0251301
0.0251674
0.0251138
0.0250713
0.0251357
0.0251748
0.0251027
0.0250711
0.0251476
0.0251564
0.025044
0.0250273
0.0251773
0.0252229
0.025019
0.0248681
0.025054
0.0253141
0.0251708
0.0246892
0.0245094
0.0250019
0.0256329
0.0254461
0.0242178
0.0229572
0.0231047
0.0250921
0.027436
0.0274698
0.0236756
0.0172102
0.0106738
0.00582041
0.00288301
0.0013293
0.000578951
0.000240046
9.51603e-05
3.61912e-05
1.32708e-05
4.73377e-06
1.67524e-06
5.98054e-07
2.3054e-07
1.06279e-07
4.62605e-08
3.01419e-08
1.57272e-08
1.29437e-08
6.64393e-09
2.55516e-09
6.95505e-09
1.10889e-09
1.25204e-09
2.38883e-09
1.57312e-09
2.59358e-09
4.4251e-09
2.66086e-09
2.69951e-09
3.80965e-09
5.02956e-09
4.4023e-09
2.90004e-09
4.72565e-09
9.16675e-10
1.3375e-09
6.57645e-10
2.18105e-09
2.06393e-09
1.59813e-09
2.46755e-09
5.97091e-10
1.50218e-09
2.57588e-10
5.11949e-10
2.75763e-10
1.82736e-10
1.40166e-10
1.42616e-10
9.50343e-11
4.85775e-11
6.61003e-11
5.94587e-11
1.43401e-11
1.97761e-11
2.8875e-11
4.09242e-12
5.83427e-12
1.20969e-11
2.39003e-12
1.44206e-11
2.95236e-11
1.23584e-12
2.23461e-11
1.8144e-11
3.64248e-12
1.36883e-11
5.8876e-12
8.44695e-12
5.88778e-12
4.32006e-12
8.1611e-12
3.20031e-12
3.89936e-12
3.43039e-12
0
0
0
0
0
0
0
0
0
0
0
0
0
0
0
0
0
0
0
0
0
0
0
0
0
0
0
0
0
0
0
0
0
0
0
0
0
0
0
0
0
0
0
0
0
0
0
0
0
0
0
0
0
0
0
0
0
0
0
0
0
0
0
0
0
0
0
0
0
0
0
0
0
0
0
0
0
0
0
0
0
0
0
0
0
0
0
0
0
0
0
0
0
0
0
0
0
0
0
0
0
0
0
0
0
0
0
0
0
0
0
0
0
0
0
0
0
0
0
0
0
0
0
0
0
0
0
0
0
0
0
0
0
0
0
0
0
0
0
0
0
0
0
0
0
0
0
0
0
0
0
0
0
0
0
0
0
0
0
0
0
0
0
0
0
0
0
0
0
0
0
0
0
0
0
0
0
0
0
0
0
0
0
0
0
0
0
0
0
0
0
0
0
0
0
0
0
0
0
0
0
0
0
0
0
0
0
0
0
0
0
0
0
0
0
0
0
0
0
0.04
0.0245983
0.0250601
0.0260977
0.0266607
0.0261615
0.0253553
0.0243951
0.024658
0.0250255
0.0246704
0.0241539
0.0247697
0.0249556
0.0249847
0.0246676
0.0250925
0.0250857
0.0251304
0.0250418
0.0252242
0.0252077
0.0252052
0.0252205
0.0252774
0.0252632
0.0252566
0.025282
0.025291
0.0252768
0.0252744
0.0252851
0.0252764
0.0252629
0.0252598
0.0252555
0.0252397
0.0252277
0.0252194
0.0252097
0.0251939
0.0251844
0.025177
0.0251653
0.025157
0.0251526
0.025147
0.0251452
0.0251428
0.0251438
0.0251457
0.0251432
0.0251472
0.0251536
0.0251523
0.0251568
0.0251601
0.025157
0.0251626
0.0251634
0.0251538
0.0251608
0.0251677
0.0251557
0.025153
0.0251553
0.0251459
0.0251518
0.0251578
0.0251321
0.0251302
0.0251657
0.0251457
0.0250919
0.0251221
0.0251755
0.0251263
0.02507
0.0251248
0.0251647
0.0250867
0.0250447
0.0251285
0.0251569
0.0250429
0.0249987
0.025128
0.0251767
0.0249802
0.0248276
0.025019
0.0252995
0.0251585
0.0246303
0.0243887
0.0248791
0.025591
0.0254993
0.0242831
0.0229235
0.0229352
0.0248766
0.0273377
0.0275918
0.0239733
0.0175452
0.0109356
0.00598157
0.00296722
0.00136829
0.000595157
0.000245912
9.67916e-05
3.63003e-05
1.29336e-05
4.36629e-06
1.37294e-06
3.98335e-07
1.00603e-07
2.75099e-08
2.18701e-08
2.10805e-08
1.47381e-08
6.53071e-09
6.24853e-09
6.43529e-09
4.4122e-09
2.56019e-09
3.61118e-09
3.51689e-09
3.07057e-09
1.44144e-09
1.37864e-09
4.39329e-09
4.27697e-09
9.93722e-10
3.71252e-09
1.39392e-09
1.28702e-09
1.14639e-09
3.9823e-10
1.29597e-09
5.98358e-10
1.87479e-09
8.17661e-10
1.82094e-09
5.06881e-10
1.23439e-09
6.01068e-11
5.03845e-10
2.26298e-10
2.4568e-10
6.95856e-11
6.35284e-11
9.09625e-11
6.73009e-11
2.69435e-11
2.29739e-11
4.24963e-11
9.44206e-12
1.38854e-11
2.20342e-11
7.56488e-12
1.36864e-11
8.26322e-12
1.03252e-11
1.12473e-11
2.73746e-11
7.22003e-12
1.71134e-11
1.91562e-11
5.10254e-12
1.22569e-11
6.54488e-12
8.12444e-12
5.24288e-12
4.12356e-12
7.56964e-12
2.78611e-12
3.69441e-12
3.26311e-12
0
0
0
0
0
0
0
0
0
0
0
0
0
0
0
0
0
0
0
0
0
0
0
0
0
0
0
0
0
0
0
0
0
0
0
0
0
0
0
0
0
0
0
0
0
0
0
0
0
0
0
0
0
0
0
0
0
0
0
0
0
0
0
0
0
0
0
0
0
0
0
0
0
0
0
0
0
0
0
0
0
0
0
0
0
0
0
0
0
0
0
0
0
0
0
0
0
0
0
0
0
0
0
0
0
0
0
0
0
0
0
0
0
0
0
0
0
0
0
0
0
0
0
0
0
0
0
0
0
0
0
0
0
0
0
0
0
0
0
0
0
0
0
0
0
0
0
0
0
0
0
0
0
0
0
0
0
0
0
0
0
0
0
0
0
0
0
0
0
0
0
0
0
0
0
0
0
0
0
0
0
0
0
0
0
0
0
0
0
0
0
0
0
0
0
0
0
0
0
0
0
0
0
0
0
0
0
0
0
0
0
0
0
0
0
0
0
0
0
0.04
0.0248627
0.0255843
0.0258082
0.0257117
0.0254713
0.0253133
0.0253777
0.0253743
0.0245652
0.0244156
0.0248384
0.0251993
0.0245929
0.0247849
0.0249594
0.0252177
0.0248807
0.0250613
0.0251449
0.0252078
0.0251021
0.0251969
0.0252419
0.0252271
0.0252137
0.0252603
0.0252704
0.0252491
0.0252576
0.0252757
0.0252673
0.0252542
0.0252607
0.0252608
0.0252459
0.0252366
0.0252352
0.0252227
0.0252083
0.0251981
0.0251899
0.0251765
0.0251626
0.025156
0.0251483
0.0251372
0.025134
0.0251307
0.0251282
0.025129
0.0251275
0.0251311
0.0251362
0.0251356
0.0251428
0.0251476
0.0251441
0.0251526
0.0251574
0.0251475
0.0251526
0.025161
0.0251521
0.0251513
0.0251527
0.0251405
0.0251473
0.0251575
0.0251306
0.0251235
0.0251608
0.025147
0.0250919
0.0251164
0.0251704
0.0251258
0.0250711
0.0251255
0.0251635
0.0250801
0.0250383
0.0251378
0.0251787
0.0250481
0.0249751
0.0251076
0.0251961
0.0250261
0.0248486
0.024994
0.0252673
0.025165
0.0246695
0.0244134
0.0248629
0.0255598
0.025494
0.024306
0.0229314
0.022881
0.0247588
0.0272194
0.0275581
0.0240503
0.0176784
0.0110559
0.00606049
0.00301035
0.00138973
0.000605415
0.000250859
9.92675e-05
3.76201e-05
1.37165e-05
4.82968e-06
1.66731e-06
5.86787e-07
2.17407e-07
8.80061e-08
4.30643e-08
2.93421e-08
1.53097e-08
7.22841e-09
7.09852e-09
7.39678e-09
1.23391e-09
1.80046e-09
2.80926e-09
1.02158e-09
1.68838e-09
2.14844e-09
3.44472e-09
2.70465e-09
4.0794e-09
3.3173e-09
4.77548e-09
3.57966e-09
2.30319e-09
2.44272e-09
8.70262e-10
1.21632e-09
2.39313e-10
3.33304e-09
1.90427e-09
2.44289e-09
2.24789e-09
7.42144e-10
1.27858e-09
1.23444e-10
4.71881e-10
1.58032e-10
1.20608e-10
8.00564e-11
7.67366e-11
5.45259e-11
2.63752e-11
2.09622e-11
2.90027e-11
1.48108e-11
1.98916e-11
1.14952e-11
1.1722e-12
2.08303e-11
6.48689e-12
9.17403e-12
1.3167e-11
2.0979e-11
8.64868e-12
1.50426e-11
1.70302e-11
6.39858e-12
1.14473e-11
6.30016e-12
7.77545e-12
4.63709e-12
3.89208e-12
6.90767e-12
2.32867e-12
3.44654e-12
3.08111e-12
0
0
0
0
0
0
0
0
0
0
0
0
0
0
0
0
0
0
0
0
0
0
0
0
0
0
0
0
0
0
0
0
0
0
0
0
0
0
0
0
0
0
0
0
0
0
0
0
0
0
0
0
0
0
0
0
0
0
0
0
0
0
0
0
0
0
0
0
0
0
0
0
0
0
0
0
0
0
0
0
0
0
0
0
0
0
0
0
0
0
0
0
0
0
0
0
0
0
0
0
0
0
0
0
0
0
0
0
0
0
0
0
0
0
0
0
0
0
0
0
0
0
0
0
0
0
0
0
0
0
0
0
0
0
0
0
0
0
0
0
0
0
0
0
0
0
0
0
0
0
0
0
0
0
0
0
0
0
0
0
0
0
0
0
0
0
0
0
0
0
0
0
0
0
0
0
0
0
0
0
0
0
0
0
0
0
0
0
0
0
0
0
0
0
0
0
0
0
0
0
0
0
0
0
0
0
0
0
0
0
0
0
0
0
0
0
0
0
0
0.04
0.025468
0.0259587
0.0255448
0.0257346
0.0258576
0.0256973
0.0253818
0.0250132
0.024867
0.0252445
0.0249613
0.0247735
0.0247064
0.0252689
0.0249795
0.0249747
0.0249517
0.0252659
0.0251075
0.0251111
0.0251598
0.025258
0.0251944
0.025201
0.0252493
0.0252616
0.0252349
0.0252476
0.0252706
0.0252592
0.025248
0.0252581
0.02526
0.0252453
0.0252396
0.0252413
0.0252327
0.0252174
0.0252118
0.025203
0.0251886
0.0251762
0.0251661
0.0251559
0.0251431
0.025132
0.0251265
0.0251165
0.0251108
0.0251125
0.0251098
0.0251103
0.0251142
0.025114
0.025121
0.0251261
0.0251252
0.0251371
0.0251451
0.0251373
0.0251409
0.0251459
0.0251395
0.0251471
0.0251515
0.0251346
0.0251401
0.0251531
0.0251221
0.0251086
0.025151
0.0251493
0.0250964
0.0251103
0.0251522
0.0251026
0.0250535
0.0251221
0.0251694
0.0250767
0.0250162
0.0251067
0.0251495
0.0250232
0.0249603
0.0251102
0.0251999
0.0249937
0.0247701
0.0249189
0.0252559
0.0252069
0.0246815
0.0243353
0.024735
0.0254837
0.0255198
0.0243767
0.0229405
0.0227768
0.0245977
0.0271305
0.0276388
0.024282
0.0179544
0.0112804
0.00620373
0.00308813
0.00142751
0.000622233
0.000257731
0.000101754
3.83284e-05
1.37689e-05
4.70169e-06
1.51771e-06
4.50102e-07
1.35353e-07
3.65942e-08
2.78879e-08
1.71759e-08
1.04268e-08
8.68236e-09
7.07349e-09
3.4609e-09
3.99533e-09
5.979e-09
3.02585e-09
9.00871e-10
4.57877e-09
4.07254e-09
2.59892e-09
3.05389e-09
2.44301e-09
2.70558e-09
2.31226e-09
7.5321e-10
1.26301e-09
2.02768e-09
7.64412e-10
1.32661e-09
1.04648e-09
6.70823e-10
1.87202e-09
8.44832e-10
1.4075e-09
7.01738e-10
7.20928e-10
4.11145e-10
1.62782e-10
1.36809e-10
1.03078e-10
5.42035e-11
7.13732e-11
6.55271e-11
2.62654e-11
3.22503e-11
2.94203e-11
2.05453e-11
1.24131e-11
3.77938e-12
1.04852e-11
1.60608e-11
1.08938e-11
2.74125e-12
1.10217e-11
1.79167e-11
6.29664e-12
1.32033e-11
1.50919e-11
6.16231e-12
1.06079e-11
6.1212e-12
7.38648e-12
4.07868e-12
3.63222e-12
6.18763e-12
1.83736e-12
3.16016e-12
2.8859e-12
0
0
0
0
0
0
0
0
0
0
0
0
0
0
0
0
0
0
0
0
0
0
0
0
0
0
0
0
0
0
0
0
0
0
0
0
0
0
0
0
0
0
0
0
0
0
0
0
0
0
0
0
0
0
0
0
0
0
0
0
0
0
0
0
0
0
0
0
0
0
0
0
0
0
0
0
0
0
0
0
0
0
0
0
0
0
0
0
0
0
0
0
0
0
0
0
0
0
0
0
0
0
0
0
0
0
0
0
0
0
0
0
0
0
0
0
0
0
0
0
0
0
0
0
0
0
0
0
0
0
0
0
0
0
0
0
0
0
0
0
0
0
0
0
0
0
0
0
0
0
0
0
0
0
0
0
0
0
0
0
0
0
0
0
0
0
0
0
0
0
0
0
0
0
0
0
0
0
0
0
0
0
0
0
0
0
0
0
0
0
0
0
0
0
0
0
0
0
0
0
0
0
0
0
0
0
0
0
0
0
0
0
0
0
0
0
0
0
0
0.04
0.0253993
0.0254658
0.025424
0.0256981
0.0255405
0.0255202
0.0253199
0.0251936
0.0252145
0.025151
0.0246993
0.0250299
0.0250797
0.0251232
0.0247326
0.0251391
0.0251433
0.0251377
0.0249771
0.0252023
0.0252139
0.0251645
0.0251472
0.0252437
0.0252389
0.0252032
0.0252248
0.0252588
0.0252412
0.0252266
0.0252464
0.025252
0.0252345
0.0252318
0.02524
0.0252318
0.0252186
0.025216
0.0252148
0.0252004
0.0251893
0.0251838
0.0251702
0.0251547
0.0251442
0.0251344
0.0251247
0.0251113
0.0251038
0.0251003
0.0250914
0.0250898
0.025094
0.0250934
0.0251017
0.0251082
0.0251035
0.0251117
0.0251236
0.025124
0.0251326
0.0251382
0.0251317
0.0251402
0.025143
0.025122
0.0251311
0.0251584
0.0251358
0.0251119
0.0251386
0.0251348
0.0250921
0.0251153
0.0251608
0.0251116
0.0250593
0.0251199
0.0251561
0.0250591
0.0250141
0.025133
0.0251857
0.0250317
0.0249295
0.0250736
0.0251984
0.0250283
0.024805
0.0249262
0.0252405
0.0251872
0.0246649
0.0243206
0.0247288
0.0254971
0.0255461
0.0243835
0.0228948
0.0226752
0.0244746
0.0270492
0.0276564
0.0243975
0.0181052
0.0114034
0.00627877
0.003126
0.00144443
0.000629257
0.000260537
0.000102947
3.88943e-05
1.407e-05
4.91438e-06
1.66601e-06
5.62525e-07
1.92473e-07
8.21483e-08
4.24328e-08
1.82745e-08
1.25702e-08
1.09221e-08
6.71024e-09
9.2164e-10
2.49414e-09
4.66841e-09
1.54857e-09
1.06561e-09
2.90227e-09
3.12149e-09
1.87621e-09
2.80266e-09
3.91698e-09
1.9716e-09
2.16315e-09
2.4207e-09
9.25807e-10
4.25424e-10
1.0385e-09
2.46988e-09
2.20075e-10
3.71899e-09
1.33836e-09
2.51743e-09
1.53191e-09
9.84939e-10
9.28171e-10
1.43203e-10
3.29176e-10
1.1433e-10
1.3118e-10
4.34854e-11
5.76542e-11
8.81566e-11
2.97593e-11
3.42623e-11
3.71438e-11
2.0961e-11
1.32359e-11
4.27129e-12
9.88529e-12
7.79111e-12
1.43903e-11
6.83798e-13
5.72316e-12
1.62757e-11
4.25099e-12
1.02773e-11
1.35195e-11
5.82271e-12
9.79204e-12
5.98873e-12
6.94726e-12
3.57457e-12
3.3502e-12
5.42222e-12
1.32266e-12
2.83978e-12
2.67894e-12
0
0
0
0
0
0
0
0
0
0
0
0
0
0
0
0
0
0
0
0
0
0
0
0
0
0
0
0
0
0
0
0
0
0
0
0
0
0
0
0
0
0
0
0
0
0
0
0
0
0
0
0
0
0
0
0
0
0
0
0
0
0
0
0
0
0
0
0
0
0
0
0
0
0
0
0
0
0
0
0
0
0
0
0
0
0
0
0
0
0
0
0
0
0
0
0
0
0
0
0
0
0
0
0
0
0
0
0
0
0
0
0
0
0
0
0
0
0
0
0
0
0
0
0
0
0
0
0
0
0
0
0
0
0
0
0
0
0
0
0
0
0
0
0
0
0
0
0
0
0
0
0
0
0
0
0
0
0
0
0
0
0
0
0
0
0
0
0
0
0
0
0
0
0
0
0
0
0
0
0
0
0
0
0
0
0
0
0
0
0
0
0
0
0
0
0
0
0
0
0
0
0
0
0
0
0
0
0
0
0
0
0
0
0
0
0
0
0
0
0.04
0.0247488
0.024922
0.0255652
0.0256983
0.0254419
0.0254946
0.0254242
0.0254045
0.0251442
0.0250496
0.0250418
0.0253169
0.0248733
0.025011
0.0250397
0.0252994
0.0249477
0.0250847
0.0251673
0.0252476
0.0250902
0.0251648
0.0252406
0.0252305
0.0251775
0.0252238
0.0252569
0.0252294
0.025218
0.0252453
0.0252472
0.0252254
0.0252265
0.0252376
0.0252273
0.0252151
0.0252186
0.0252164
0.0252044
0.0251951
0.0251936
0.0251857
0.0251706
0.0251625
0.0251533
0.0251372
0.0251253
0.0251131
0.0251021
0.0250944
0.0250849
0.0250806
0.0250766
0.0250695
0.0250776
0.0250859
0.0250825
0.0250914
0.0251032
0.0251035
0.025112
0.0251171
0.0251137
0.0251317
0.0251419
0.0251165
0.0251164
0.025143
0.0251265
0.0251062
0.025134
0.0251324
0.0250893
0.0251059
0.0251437
0.0250929
0.0250466
0.0251157
0.0251539
0.0250506
0.0249978
0.025111
0.0251576
0.0250007
0.0249109
0.0250785
0.0252076
0.0250028
0.0247355
0.0248575
0.0252247
0.0252178
0.024678
0.0242679
0.0246355
0.0254357
0.0255564
0.0244296
0.0229023
0.0226039
0.0243606
0.0269876
0.027727
0.0245915
0.0183382
0.0115952
0.00640274
0.00319451
0.00147871
0.000645239
0.000267574
0.000105836
3.99876e-05
1.44364e-05
4.96706e-06
1.63587e-06
5.14834e-07
1.46244e-07
5.34109e-08
2.42128e-08
1.66413e-08
1.29249e-08
8.77659e-09
7.79477e-09
1.90468e-09
6.64834e-09
4.27577e-09
5.41575e-09
2.73886e-09
1.96374e-09
1.70326e-09
3.44532e-09
3.58595e-09
9.30008e-10
3.95555e-09
2.90083e-09
3.54911e-10
1.54961e-09
1.7637e-09
5.29768e-10
1.84878e-10
1.42625e-09
1.00356e-09
2.3809e-09
4.66599e-10
1.93356e-09
2.09478e-10
8.34745e-10
2.14558e-10
2.84504e-10
1.49505e-10
9.99281e-11
7.53336e-11
3.40959e-11
9.03396e-11
5.01212e-11
3.36714e-11
4.08407e-11
2.76408e-11
1.51031e-11
5.06281e-12
7.74977e-12
5.05398e-12
1.44104e-11
9.82634e-13
2.18167e-12
1.39429e-11
3.02585e-12
7.54167e-12
1.19619e-11
5.33741e-12
9.01369e-12
5.8768e-12
6.44918e-12
3.12887e-12
3.05201e-12
4.62558e-12
7.97356e-13
2.49056e-12
2.4619e-12
0
0
0
0
0
0
0
0
0
0
0
0
0
0
0
0
0
0
0
0
0
0
0
0
0
0
0
0
0
0
0
0
0
0
0
0
0
0
0
0
0
0
0
0
0
0
0
0
0
0
0
0
0
0
0
0
0
0
0
0
0
0
0
0
0
0
0
0
0
0
0
0
0
0
0
0
0
0
0
0
0
0
0
0
0
0
0
0
0
0
0
0
0
0
0
0
0
0
0
0
0
0
0
0
0
0
0
0
0
0
0
0
0
0
0
0
0
0
0
0
0
0
0
0
0
0
0
0
0
0
0
0
0
0
0
0
0
0
0
0
0
0
0
0
0
0
0
0
0
0
0
0
0
0
0
0
0
0
0
0
0
0
0
0
0
0
0
0
0
0
0
0
0
0
0
0
0
0
0
0
0
0
0
0
0
0
0
0
0
0
0
0
0
0
0
0
0
0
0
0
0
0
0
0
0
0
0
0
0
0
0
0
0
0
0
0
0
0
0
0.04
0.0251133
0.0255191
0.0254046
0.0253039
0.0254891
0.0255322
0.0253509
0.0253169
0.0251308
0.0252334
0.0251192
0.0251331
0.02487
0.0252684
0.025062
0.0250881
0.0249633
0.0252696
0.0251333
0.0250979
0.0251186
0.0252547
0.0251847
0.0251515
0.0252062
0.0252495
0.0252063
0.0251983
0.0252371
0.0252394
0.0252126
0.0252181
0.0252339
0.0252219
0.025207
0.0252133
0.025215
0.0252007
0.0251957
0.0251967
0.0251897
0.0251788
0.0251723
0.0251681
0.0251558
0.0251418
0.025135
0.0251206
0.0251039
0.0250944
0.0250835
0.0250751
0.0250675
0.0250568
0.0250595
0.025064
0.0250594
0.0250674
0.0250786
0.0250815
0.0250945
0.0250999
0.0250931
0.0251138
0.0251332
0.0251118
0.0251085
0.0251349
0.0251231
0.0251044
0.0251307
0.0251309
0.0250904
0.0251051
0.0251398
0.0250906
0.025051
0.0251236
0.0251555
0.0250422
0.024989
0.0251137
0.0251709
0.025012
0.0249112
0.0250699
0.0251967
0.0249957
0.0247387
0.0248737
0.025243
0.0252157
0.0246446
0.024222
0.0246133
0.0254558
0.0255948
0.0244364
0.022845
0.0224929
0.0242427
0.0269269
0.0277695
0.0247239
0.0184952
0.0117176
0.00647469
0.00322907
0.00149288
0.00065028
0.000269077
0.000106139
3.99962e-05
1.4423e-05
4.97879e-06
1.6493e-06
5.34111e-07
1.90014e-07
6.68597e-08
2.70462e-08
2.02502e-08
1.19612e-08
8.05488e-09
1.53866e-09
6.24892e-09
3.88576e-09
2.72352e-09
4.09813e-09
2.51693e-09
3.57688e-09
3.13932e-09
1.07077e-09
9.85841e-10
1.82421e-09
2.25174e-09
8.73704e-10
1.59056e-09
1.50182e-09
1.09607e-09
1.12164e-09
2.99582e-09
4.30637e-10
3.26464e-09
2.5427e-10
2.22361e-09
5.67901e-10
8.55623e-10
3.94228e-10
2.66105e-10
1.3682e-10
4.69246e-11
9.46144e-11
8.95525e-11
2.96345e-11
6.80182e-11
7.05552e-11
3.22385e-11
3.22992e-11
3.90715e-11
1.76833e-11
6.98932e-12
8.7566e-12
5.08411e-12
1.35678e-11
1.63844e-12
3.27033e-12
1.13941e-11
2.18608e-12
5.08178e-12
1.03821e-11
4.69746e-12
8.28123e-12
5.75313e-12
5.8869e-12
2.74332e-12
2.74206e-12
3.81311e-12
2.90447e-13
2.11785e-12
2.23647e-12
0
0
0
0
0
0
0
0
0
0
0
0
0
0
0
0
0
0
0
0
0
0
0
0
0
0
0
0
0
0
0
0
0
0
0
0
0
0
0
0
0
0
0
0
0
0
0
0
0
0
0
0
0
0
0
0
0
0
0
0
0
0
0
0
0
0
0
0
0
0
0
0
0
0
0
0
0
0
0
0
0
0
0
0
0
0
0
0
0
0
0
0
0
0
0
0
0
0
0
0
0
0
0
0
0
0
0
0
0
0
0
0
0
0
0
0
0
0
0
0
0
0
0
0
0
0
0
0
0
0
0
0
0
0
0
0
0
0
0
0
0
0
0
0
0
0
0
0
0
0
0
0
0
0
0
0
0
0
0
0
0
0
0
0
0
0
0
0
0
0
0
0
0
0
0
0
0
0
0
0
0
0
0
0
0
0
0
0
0
0
0
0
0
0
0
0
0
0
0
0
0
0
0
0
0
0
0
0
0
0
0
0
0
0
0
0
0
0
0
0.04
0.0252657
0.0253628
0.0251787
0.0254382
0.0255622
0.0254146
0.0253143
0.025331
0.0252565
0.0253197
0.0250215
0.0251738
0.0251053
0.0252805
0.0249058
0.0251821
0.0251595
0.0252077
0.02501
0.025197
0.0252266
0.0251762
0.0251215
0.0252254
0.0252409
0.0251867
0.0251887
0.0252421
0.0252333
0.0252011
0.0252163
0.0252368
0.0252177
0.0252042
0.0252154
0.0252148
0.025197
0.025192
0.0251984
0.0251895
0.0251777
0.0251775
0.0251737
0.0251634
0.0251541
0.0251483
0.0251422
0.0251267
0.0251131
0.0251026
0.0250846
0.0250736
0.0250672
0.0250527
0.0250477
0.0250476
0.0250404
0.025043
0.0250491
0.0250541
0.025074
0.025082
0.0250706
0.0250869
0.0251092
0.0250959
0.0250995
0.0251286
0.0251153
0.0250921
0.0251156
0.0251173
0.0250815
0.0251016
0.0251386
0.0250856
0.0250364
0.0251
0.0251325
0.0250327
0.0249949
0.0251173
0.0251492
0.0249663
0.0248727
0.0250653
0.0252126
0.0249908
0.0246943
0.024818
0.0252155
0.0252194
0.0246445
0.0241896
0.0245612
0.0254224
0.0255994
0.0244555
0.0228355
0.0224335
0.0241608
0.0268924
0.0278428
0.0248969
0.0186974
0.0118822
0.00658051
0.00328768
0.00152256
0.00066449
0.000275637
0.000109115
4.12755e-05
1.4937e-05
5.19042e-06
1.72368e-06
5.49806e-07
1.7197e-07
6.20843e-08
3.1384e-08
1.59869e-08
1.48984e-08
6.24164e-09
5.74202e-09
8.14626e-09
2.05535e-09
1.27422e-09
4.96756e-09
1.73482e-09
3.10728e-09
1.62353e-09
4.20917e-09
4.91725e-09
7.21888e-10
3.33915e-09
1.98868e-09
8.02327e-10
5.7956e-10
8.98909e-10
3.84915e-10
1.62028e-09
1.39686e-09
2.42714e-09
2.45672e-09
1.22022e-09
1.81244e-09
2.33087e-10
8.7524e-10
1.95322e-10
2.56665e-10
9.65818e-11
9.83037e-11
1.00311e-10
4.43994e-11
5.48655e-11
7.80457e-11
3.552e-11
2.26179e-11
4.5378e-11
2.3426e-11
7.35518e-12
9.45883e-12
7.39516e-12
1.23108e-11
2.34987e-12
5.3423e-12
8.64106e-12
2.26498e-12
2.98184e-12
8.75193e-12
3.91593e-12
7.59305e-12
5.58148e-12
5.25984e-12
2.41608e-12
2.42446e-12
3.00003e-12
3.16039e-13
1.72714e-12
2.00433e-12
0
0
0
0
0
0
0
0
0
0
0
0
0
0
0
0
0
0
0
0
0
0
0
0
0
0
0
0
0
0
0
0
0
0
0
0
0
0
0
0
0
0
0
0
0
0
0
0
0
0
0
0
0
0
0
0
0
0
0
0
0
0
0
0
0
0
0
0
0
0
0
0
0
0
0
0
0
0
0
0
0
0
0
0
0
0
0
0
0
0
0
0
0
0
0
0
0
0
0
0
0
0
0
0
0
0
0
0
0
0
0
0
0
0
0
0
0
0
0
0
0
0
0
0
0
0
0
0
0
0
0
0
0
0
0
0
0
0
0
0
0
0
0
0
0
0
0
0
0
0
0
0
0
0
0
0
0
0
0
0
0
0
0
0
0
0
0
0
0
0
0
0
0
0
0
0
0
0
0
0
0
0
0
0
0
0
0
0
0
0
0
0
0
0
0
0
0
0
0
0
0
0
0
0
0
0
0
0
0
0
0
0
0
0
0
0
0
0
0
0.04
0.0250899
0.0250729
0.0252632
0.025431
0.0252486
0.0253199
0.0254
0.0253256
0.025187
0.0252381
0.0250804
0.0253022
0.0250392
0.0251637
0.0250194
0.0253021
0.0250411
0.0251195
0.0251305
0.0252527
0.0251072
0.0251355
0.0252087
0.0252269
0.0251533
0.0251789
0.0252329
0.0252164
0.0251833
0.0252097
0.0252312
0.0252082
0.0251957
0.0252142
0.0252141
0.0251953
0.0251928
0.025198
0.0251888
0.0251748
0.0251746
0.0251752
0.0251645
0.0251593
0.0251569
0.025147
0.0251381
0.0251304
0.0251233
0.0251121
0.0250935
0.0250827
0.0250718
0.0250499
0.0250405
0.0250397
0.0250318