# vtk DataFile Version 3.0
LBM output step 210
ASCII
DATASET STRUCTURED_POINTS
DIMENSIONS 400 100 1
ORIGIN 0 0 0
SPACING 1 1 1
POINT_DATA 40000
SCALARS velocity_magnitude double 1
LOOKUP_TABLE default
0
0
0
0
0
0
0
0
0
0
0
0
0
0
0
0
0
0
0
0
0
0
0
0
0
0
0
0
0
0
0
0
0
0
0
0
0
0
0
0
0
0
0
0
0
0
0
0
0
0
0
0
0
0
0
0
0
0
0
0
0
0
0
0
0
0
0
0
0
0
0
0
0
0
0
0
0
0
0
0
0
0
0
0
0
0
0
0
0
0
0
0
0
0
0
0
0
0
0
0
0
0
0
0
0
0
0
0
0
0
0
0
0
0
0
0
0
0
0
0
0
0
0
0
0
0
0
0
0
0
0
0
0
0
0
0
0
0
0
0
0
0
0
0
0
0
0
0
0
0
0
0
0
0
0
0
0
0
0
0
0
0
0
0
0
0
0
0
0
0
0
0
0
0
0
0
0
0
0
0
0
0
0
0
0
0
0
0
0
0
0
0
0
0
0
0
0
0
0
0
0
0
0
0
0
0
0
0
0
0
0
0
0
0
0
0
0
0
0
0
0
0
0
0
0
0
0
0
0
0
0
0
0
0
0
0
0
0
0
0
0
0
0
0
0
0
0
0
0
0
0
0
0
0
0
0
0
0
0
0
0
0
0
0
0
0
0
0
0
0
0
0
0
0
0
0
0
0
0
0
0
0
0
0
0
0
0
0
0
0
0
0
0
0
0
0
0
0
0
0
0
0
0
0
0
0
0
0
0
0
0
0
0
0
0
0
0
0
0
0
0
0
0
0
0
0
0
0
0
0
0
0
0
0
0
0
0
0
0
0
0
0
0
0
0
0
0
0
0
0
0
0
0
0
0
0
0
0
0
0
0
0
0
0
0
0
0
0
0
0
0
0
0
0
0
0
0
0
0
0
0
0
0
0
0
0
0
0
0
0
0
0
0
0
0
0
0
0
0
0
0.04
0.0149943
0.00973278
0.0164116
0.0184773
0.0181638
0.0158584
0.0161703
0.0166224
0.0168079
0.016472
0.0163389
0.0160085
0.0156333
0.0153853
0.0151335
0.0148306
0.0144886
0.014251
0.0139927
0.0137307
0.013491
0.0132839
0.0130775
0.0128747
0.012711
0.0125538
0.0124093
0.0122752
0.012171
0.0120693
0.0119843
0.0119116
0.0118582
0.0118077
0.0117727
0.0117476
0.0117343
0.0117256
0.0117294
0.01174
0.0117586
0.0117814
0.0118131
0.0118466
0.0118854
0.0119277
0.011971
0.0120154
0.0120663
0.0121158
0.0121635
0.0122175
0.0122781
0.01233
0.012384
0.012453
0.0125159
0.0125668
0.0126329
0.012703
0.0127545
0.0128067
0.0128732
0.0129323
0.0129814
0.0130403
0.0131117
0.0131786
0.0132463
0.0133307
0.0134254
0.013519
0.0136218
0.0137343
0.0138471
0.0139646
0.0140888
0.0142068
0.0143256
0.014455
0.0145792
0.014692
0.0148147
0.0149435
0.0150622
0.0151858
0.0153206
0.0154446
0.0155683
0.0157182
0.0158627
0.0159764
0.0161171
0.0163145
0.0164808
0.0165763
0.0167182
0.0169708
0.0171915
0.0172733
0.0173725
0.0176744
0.0180413
0.0181806
0.0181318
0.0182896
0.0188328
0.0193794
0.019437
0.0191179
0.0191367
0.0199682
0.0211301
0.0215463
0.0207305
0.0195127
0.0194559
0.0214394
0.0245661
0.0263794
0.0246952
0.019584
0.0132091
0.00776954
0.0041175
0.00202411
0.000940188
0.000415037
0.00017591
7.32394e-05
2.89726e-05
1.03516e-05
4.2411e-06
2.29942e-06
4.14799e-07
4.96369e-07
4.16469e-07
1.80562e-07
1.95193e-07
2.32636e-08
9.52987e-08
1.87819e-08
2.31284e-08
1.44651e-08
6.45582e-09
5.16662e-09
1.07729e-09
1.49374e-09
7.32507e-10
2.76828e-11
7.31609e-10
8.03132e-10
3.8085e-10
1.30642e-10
3.33989e-10
1.60333e-10
1.5053e-10
1.73525e-10
1.07913e-10
1.87375e-10
1.58676e-10
1.32436e-10
1.79047e-10
1.24754e-10
3.37622e-10
1.44097e-10
1.60808e-10
7.57097e-11
1.92635e-10
1.55187e-10
3.71946e-11
4.28449e-11
7.36487e-11
6.75844e-11
5.91691e-11
5.31917e-11
4.76034e-11
4.62055e-11
4.43731e-11
3.63481e-11
3.1456e-11
2.9914e-11
2.73137e-11
2.14945e-11
1.84275e-11
1.68866e-11
1.38193e-11
1.14753e-11
9.33892e-12
8.66489e-12
5.68433e-12
5.40476e-12
4.4557e-12
2.7314e-12
1.9804e-12
2.32295e-12
9.5426e-13
6.43006e-13
1.56924e-12
2.86748e-13
1.79668e-13
6.29876e-13
9.4857e-14
4.75896e-13
4.775e-13
8.25847e-13
4.95404e-13
7.11778e-13
3.32823e-13
2.81929e-13
0
0
0
0
0
0
0
0
0
0
0
0
0
0
0
0
0
0
0
0
0
0
0
0
0
0
0
0
0
0
0
0
0
0
0
0
0
0
0
0
0
0
0
0
0
0
0
0
0
0
0
0
0
0
0
0
0
0
0
0
0
0
0
0
0
0
0
0
0
0
0
0
0
0
0
0
0
0
0
0
0
0
0
0
0
0
0
0
0
0
0
0
0
0
0
0
0
0
0
0
0
0
0
0
0
0
0
0
0
0
0
0
0
0
0
0
0
0
0
0
0
0
0
0
0
0
0
0
0
0
0
0
0
0
0
0
0
0
0
0
0
0
0
0
0
0
0
0
0
0
0
0
0
0
0
0
0
0
0
0
0
0
0
0
0
0
0
0
0
0
0
0
0
0
0
0
0
0
0
0
0
0
0
0
0
0
0
0
0
0.04
0.0224107
0.0225261
0.020056
0.0139873
0.015065
0.019201
0.0205948
0.0198403
0.0199823
0.0206423
0.0207156
0.02062
0.0205547
0.0205898
0.0202951
0.0202921
0.0201907
0.0201792
0.0199972
0.0200056
0.019946
0.0199172
0.0198622
0.0198745
0.0198624
0.0198542
0.0198639
0.0198896
0.0199073
0.0199295
0.019968
0.0200065
0.0200422
0.020084
0.0201332
0.02018
0.0202276
0.0202804
0.0203341
0.020385
0.0204373
0.0204909
0.0205433
0.0205951
0.0206495
0.0207029
0.0207551
0.0208126
0.0208693
0.0209211
0.0209799
0.0210432
0.0210973
0.0211524
0.0212198
0.0212828
0.0213339
0.0213952
0.0214657
0.0215217
0.0215728
0.0216371
0.0217015
0.021755
0.0218079
0.0218716
0.0219429
0.0220045
0.0220646
0.0221504
0.022242
0.0223137
0.0224019
0.0225158
0.0226128
0.0227023
0.0228157
0.0229254
0.0230177
0.0231218
0.0232282
0.0233188
0.0234139
0.0235154
0.0236001
0.0236863
0.0237851
0.02387
0.0239437
0.0240443
0.0241445
0.0242058
0.0242744
0.024397
0.0244991
0.0245303
0.0245858
0.0247392
0.0248663
0.0248555
0.0248405
0.0250054
0.0252336
0.0252497
0.0250742
0.0250689
0.0254065
0.0257325
0.0255854
0.0250807
0.0248927
0.025454
0.0262856
0.026358
0.025226
0.0237027
0.0232873
0.0248277
0.0274629
0.0287776
0.0265776
0.0209271
0.0140518
0.00823358
0.00434418
0.00212176
0.000979323
0.000431347
0.00017989
7.17546e-05
2.88853e-05
1.06384e-05
2.93445e-06
1.18138e-06
9.99371e-07
2.51864e-07
3.30549e-07
2.35588e-07
6.2877e-08
1.45738e-07
1.62373e-08
4.737e-08
1.7352e-08
1.6006e-08
5.3398e-09
2.18575e-09
3.18301e-09
1.41476e-09
9.33732e-10
3.06989e-10
3.713e-10
5.673e-10
6.21966e-10
1.45836e-10
1.79135e-10
3.88387e-10
4.95774e-10
3.77636e-10
2.20342e-10
9.43709e-11
3.26044e-10
4.17748e-10
1.40887e-10
1.93315e-10
1.62494e-10
3.07119e-10
1.79548e-10
1.75458e-10
1.04047e-10
1.35888e-10
1.34236e-10
9.62668e-11
7.93948e-11
6.82733e-11
7.46102e-11
7.37483e-11
6.29444e-11
5.47079e-11
5.73329e-11
5.28403e-11
4.47111e-11
4.1346e-11
4.03662e-11
3.46651e-11
3.09227e-11
2.91224e-11
2.49154e-11
2.09188e-11
1.99662e-11
1.74335e-11
1.28276e-11
1.22354e-11
1.2142e-11
7.68181e-12
7.72175e-12
7.41982e-12
5.17549e-12
4.19515e-12
3.92549e-12
3.40505e-12
1.80388e-12
1.52627e-12
2.13584e-12
4.76632e-13
1.15101e-12
6.32638e-13
6.54618e-13
3.12746e-13
3.01106e-13
2.75948e-13
0
0
0
0
0
0
0
0
0
0
0
0
0
0
0
0
0
0
0
0
0
0
0
0
0
0
0
0
0
0
0
0
0
0
0
0
0
0
0
0
0
0
0
0
0
0
0
0
0
0
0
0
0
0
0
0
0
0
0
0
0
0
0
0
0
0
0
0
0
0
0
0
0
0
0
0
0
0
0
0
0
0
0
0
0
0
0
0
0
0
0
0
0
0
0
0
0
0
0
0
0
0
0
0
0
0
0
0
0
0
0
0
0
0
0
0
0
0
0
0
0
0
0
0
0
0
0
0
0
0
0
0
0
0
0
0
0
0
0
0
0
0
0
0
0
0
0
0
0
0
0
0
0
0
0
0
0
0
0
0
0
0
0
0
0
0
0
0
0
0
0
0
0
0
0
0
0
0
0
0
0
0
0
0
0
0
0
0
0
0.04
0.0243277
0.021708
0.0184009
0.0195447
0.0219809
0.0211656
0.020396
0.0216151
0.0228542
0.0228762
0.0226934
0.0231145
0.0232463
0.0233502
0.0232365
0.0235099
0.0234004
0.0235241
0.0234867
0.0236428
0.0235913
0.0236715
0.023701
0.0237699
0.0237809
0.0238352
0.0238808
0.0239179
0.0239494
0.0239934
0.0240328
0.0240619
0.0240951
0.0241303
0.0241601
0.0241864
0.0242166
0.0242449
0.0242685
0.0242914
0.0243156
0.0243359
0.0243558
0.0243769
0.0243964
0.0244152
0.0244383
0.0244603
0.024477
0.0245008
0.0245288
0.0245425
0.0245591
0.0245895
0.0246059
0.0246111
0.0246336
0.0246578
0.0246636
0.0246732
0.0246988
0.0247167
0.0247237
0.02474
0.0247626
0.0247789
0.0247924
0.0248055
0.0248265
0.0248548
0.0248673
0.0248796
0.0249226
0.02496
0.024969
0.0250037
0.0250611
0.0250865
0.0251038
0.0251531
0.0251904
0.0252031
0.0252306
0.0252653
0.0252712
0.0252808
0.0253084
0.0253185
0.0253067
0.0253236
0.025347
0.0253303
0.0253063
0.0253366
0.0253602
0.0253158
0.0252761
0.0253286
0.025372
0.0252881
0.0251807
0.0252395
0.0253795
0.0253363
0.0250953
0.0249861
0.0251987
0.0254394
0.0252737
0.0247668
0.0245081
0.0249162
0.0256139
0.0256893
0.0246758
0.0232351
0.0227409
0.0240786
0.0265782
0.0279983
0.0261176
0.0207975
0.0141051
0.00833226
0.00442957
0.00217837
0.00100837
0.000447288
0.000192369
7.74136e-05
2.93843e-05
1.28265e-05
5.22299e-06
1.09189e-06
5.08097e-07
9.40806e-07
1.57895e-07
2.49666e-07
2.11209e-07
1.08184e-07
8.58229e-08
2.00127e-08
3.86648e-08
8.10128e-09
7.64169e-09
4.26559e-09
2.84458e-09
7.76476e-10
3.87508e-10
8.41308e-10
5.36925e-10
3.5993e-10
2.70473e-10
2.27998e-10
5.46091e-10
2.17594e-10
1.82001e-10
2.89761e-10
1.88304e-10
2.3727e-10
2.29093e-10
2.63619e-10
3.61317e-11
3.16304e-10
1.80506e-10
1.22566e-11
1.48008e-10
7.49464e-11
1.46864e-10
5.54179e-11
8.75994e-11
3.26238e-11
3.90712e-11
2.55111e-11
2.32628e-11
2.41761e-11
2.21416e-11
1.79044e-11
1.82948e-11
1.8118e-11
1.42128e-11
1.45358e-11
1.43671e-11
1.26011e-11
1.20311e-11
1.14131e-11
9.5889e-12
9.88244e-12
8.02396e-12
7.37587e-12
6.6349e-12
4.83955e-12
5.95355e-12
4.88634e-12
2.86621e-12
4.96707e-12
3.23066e-12
2.11883e-12
3.00081e-12
2.15653e-12
1.11607e-12
1.19403e-12
1.25252e-12
6.84621e-13
6.23347e-13
6.67715e-13
5.63496e-13
3.08327e-13
2.97134e-13
2.68767e-13
0
0
0
0
0
0
0
0
0
0
0
0
0
0
0
0
0
0
0
0
0
0
0
0
0
0
0
0
0
0
0
0
0
0
0
0
0
0
0
0
0
0
0
0
0
0
0
0
0
0
0
0
0
0
0
0
0
0
0
0
0
0
0
0
0
0
0
0
0
0
0
0
0
0
0
0
0
0
0
0
0
0
0
0
0
0
0
0
0
0
0
0
0
0
0
0
0
0
0
0
0
0
0
0
0
0
0
0
0
0
0
0
0
0
0
0
0
0
0
0
0
0
0
0
0
0
0
0
0
0
0
0
0
0
0
0
0
0
0
0
0
0
0
0
0
0
0
0
0
0
0
0
0
0
0
0
0
0
0
0
0
0
0
0
0
0
0
0
0
0
0
0
0
0
0
0
0
0
0
0
0
0
0
0
0
0
0
0
0
0.04
0.0262907
0.0276248
0.0271313
0.0262177
0.0233724
0.0218922
0.0233367
0.0241479
0.0234528
0.0232568
0.0239752
0.02448
0.0242209
0.0244293
0.0245539
0.0248258
0.0246385
0.0248981
0.0248828
0.0250089
0.0249451
0.0250889
0.0250884
0.0251247
0.0251348
0.0251917
0.0251982
0.025208
0.0252301
0.0252484
0.0252502
0.0252547
0.0252684
0.0252711
0.0252698
0.0252722
0.0252761
0.0252719
0.0252687
0.0252673
0.0252641
0.025257
0.0252537
0.025248
0.025241
0.0252377
0.0252336
0.0252238
0.0252217
0.0252235
0.0252117
0.0252005
0.0252064
0.0251966
0.0251706
0.0251678
0.0251677
0.0251397
0.0251218
0.0251254
0.0251146
0.025095
0.0250932
0.0250958
0.02509
0.0250848
0.0250802
0.0250771
0.0250772
0.025066
0.0250511
0.0250583
0.0250619
0.0250411
0.0250393
0.025066
0.0250646
0.0250533
0.0250799
0.0251108
0.025101
0.0251
0.0251292
0.0251444
0.0251252
0.0251289
0.0251566
0.0251569
0.0251213
0.0251211
0.0251445
0.0251316
0.0250959
0.0251151
0.0251423
0.025102
0.0250448
0.0250797
0.0251346
0.0250856
0.0249966
0.0250432
0.0251632
0.0251219
0.0249038
0.0248274
0.0250741
0.0253396
0.0251773
0.0246575
0.0243856
0.0248049
0.0255626
0.025734
0.0247859
0.0233169
0.0227119
0.0239561
0.0264969
0.0281098
0.0264488
0.0212285
0.0144831
0.00858065
0.00456202
0.00224481
0.00103998
0.000455234
0.000192483
8.05553e-05
2.97842e-05
9.64482e-06
4.89651e-06
2.12432e-06
8.99112e-07
7.96989e-08
6.31317e-07
1.83219e-07
2.72239e-07
1.27286e-07
6.53998e-08
7.06615e-08
1.81831e-08
1.91112e-08
5.11017e-09
6.47345e-09
1.34433e-09
9.61742e-10
8.73642e-10
4.62042e-10
1.69163e-10
5.11523e-10
1.48933e-10
1.12338e-10
4.73276e-10
2.37994e-10
4.65754e-10
3.44881e-11
2.49059e-10
9.96962e-11
6.1373e-10
1.63372e-10
3.21412e-10
1.16972e-10
7.89534e-11
2.86509e-10
8.41448e-11
2.4574e-10
3.38277e-11
1.07133e-10
5.81584e-11
4.63417e-11
2.43003e-11
2.22163e-11
2.40479e-11
2.15362e-11
1.80895e-11
1.82736e-11
1.57575e-11
1.23005e-11
1.2173e-11
1.00526e-11
6.80755e-12
6.81362e-12
4.52575e-12
2.12342e-12
3.22938e-12
1.17188e-12
4.91261e-13
1.46763e-12
7.71008e-13
7.02518e-13
4.23241e-13
1.85797e-12
5.42704e-13
1.82097e-12
2.13878e-12
5.33844e-13
2.01708e-12
1.41192e-12
3.5786e-13
9.77799e-13
8.09926e-13
4.25085e-13
5.54405e-13
4.39898e-13
5.32426e-13
2.92803e-13
2.89854e-13
2.6046e-13
0
0
0
0
0
0
0
0
0
0
0
0
0
0
0
0
0
0
0
0
0
0
0
0
0
0
0
0
0
0
0
0
0
0
0
0
0
0
0
0
0
0
0
0
0
0
0
0
0
0
0
0
0
0
0
0
0
0
0
0
0
0
0
0
0
0
0
0
0
0
0
0
0
0
0
0
0
0
0
0
0
0
0
0
0
0
0
0
0
0
0
0
0
0
0
0
0
0
0
0
0
0
0
0
0
0
0
0
0
0
0
0
0
0
0
0
0
0
0
0
0
0
0
0
0
0
0
0
0
0
0
0
0
0
0
0
0
0
0
0
0
0
0
0
0
0
0
0
0
0
0
0
0
0
0
0
0
0
0
0
0
0
0
0
0
0
0
0
0
0
0
0
0
0
0
0
0
0
0
0
0
0
0
0
0
0
0
0
0
0.04
0.0266896
0.0278106
0.0264732
0.0255603
0.0252585
0.0258271
0.0249666
0.0235044
0.0237276
0.0247124
0.0246471
0.0243287
0.0244531
0.0250324
0.0248609
0.0249813
0.0249574
0.0252577
0.0250912
0.0252379
0.0252318
0.0253317
0.0252671
0.0253371
0.0253524
0.025363
0.0253519
0.025378
0.025384
0.0253736
0.0253744
0.0253803
0.0253743
0.0253622
0.0253608
0.0253556
0.0253441
0.0253339
0.025329
0.0253181
0.0253062
0.0252966
0.0252869
0.0252725
0.0252631
0.025253
0.0252364
0.0252265
0.0252219
0.0252014
0.0251846
0.0251856
0.0251708
0.02514
0.0251352
0.0251328
0.0250985
0.0250754
0.0250805
0.0250632
0.0250359
0.0250392
0.0250409
0.0250256
0.0250279
0.0250332
0.0250262
0.0250313
0.0250302
0.0250126
0.0250149
0.0250162
0.0249835
0.0249775
0.0250025
0.0249884
0.0249621
0.0249923
0.0250189
0.025006
0.0250083
0.0250454
0.0250685
0.0250757
0.0250717
0.0250802
0.0251054
0.0251179
0.0250947
0.0251011
0.0251362
0.0251316
0.0250864
0.0250972
0.0251401
0.0251273
0.0250814
0.0251119
0.0251649
0.0251175
0.0250185
0.0250537
0.0251936
0.0252028
0.0250089
0.024886
0.0250555
0.025303
0.0252057
0.0247659
0.0245087
0.0248525
0.0255013
0.0256413
0.0247761
0.0234043
0.0227879
0.0239049
0.0263144
0.0279133
0.026364
0.0212776
0.0145997
0.00869512
0.00463845
0.0022839
0.00106465
0.00047347
0.000197241
8.06405e-05
3.52603e-05
1.21649e-05
2.95835e-06
2.6994e-06
1.56814e-06
7.7428e-07
9.2419e-08
5.90568e-07
1.07464e-07
1.93551e-07
1.01537e-07
6.40966e-08
3.6303e-08
1.05516e-08
1.38461e-08
2.69377e-09
2.6951e-09
1.14321e-09
1.11628e-09
3.11728e-10
4.21532e-10
2.63873e-10
1.47411e-10
3.15269e-10
1.89289e-10
4.41121e-11
4.26913e-10
1.71478e-10
1.50371e-10
3.58015e-10
2.42663e-10
3.92849e-10
2.58406e-10
1.56852e-10
1.81203e-10
1.95372e-10
1.8354e-10
1.99599e-10
1.49055e-10
1.02446e-10
9.58418e-11
3.64927e-11
4.32374e-11
2.6586e-11
2.52985e-11
2.19571e-11
2.15565e-11
1.93378e-11
1.68108e-11
1.38062e-11
1.30697e-11
1.17265e-11
8.4498e-12
7.01786e-12
6.40368e-12
3.45147e-12
3.23427e-12
2.85728e-12
1.95925e-13
1.49102e-12
1.36227e-12
9.94698e-13
3.74429e-13
7.3652e-13
7.56034e-13
1.19521e-12
1.90852e-12
4.08257e-13
1.65333e-12
1.52468e-12
9.48457e-14
9.76993e-13
8.11271e-13
2.52708e-13
5.20105e-13
4.27505e-13
4.96509e-13
2.73628e-13
2.79259e-13
2.51068e-13
0
0
0
0
0
0
0
0
0
0
0
0
0
0
0
0
0
0
0
0
0
0
0
0
0
0
0
0
0
0
0
0
0
0
0
0
0
0
0
0
0
0
0
0
0
0
0
0
0
0
0
0
0
0
0
0
0
0
0
0
0
0
0
0
0
0
0
0
0
0
0
0
0
0
0
0
0
0
0
0
0
0
0
0
0
0
0
0
0
0
0
0
0
0
0
0
0
0
0
0
0
0
0
0
0
0
0
0
0
0
0
0
0
0
0
0
0
0
0
0
0
0
0
0
0
0
0
0
0
0
0
0
0
0
0
0
0
0
0
0
0
0
0
0
0
0
0
0
0
0
0
0
0
0
0
0
0
0
0
0
0
0
0
0
0
0
0
0
0
0
0
0
0
0
0
0
0
0
0
0
0
0
0
0
0
0
0
0
0
0.04
0.0246494
0.0251256
0.0262214
0.0268497
0.026414
0.0256389
0.024665
0.0248356
0.0251699
0.0246912
0.0242207
0.0247371
0.0250055
0.0249927
0.0246972
0.0251335
0.0250968
0.0252025
0.0250541
0.0252997
0.0252303
0.0252777
0.0252575
0.0253436
0.0253115
0.0253198
0.0253372
0.0253537
0.0253375
0.0253388
0.0253497
0.025343
0.0253314
0.0253298
0.0253283
0.0253151
0.0253055
0.0253004
0.0252914
0.0252783
0.0252708
0.0252623
0.0252512
0.025242
0.0252341
0.0252191
0.0252089
0.0252042
0.0251848
0.0251659
0.0251682
0.0251528
0.0251213
0.02512
0.02512
0.025087
0.0250696
0.0250791
0.025064
0.0250353
0.0250402
0.0250464
0.0250264
0.0250286
0.0250459
0.0250364
0.0250388
0.025056
0.02504
0.0250343
0.0250529
0.0250283
0.0249983
0.0250216
0.0250103
0.0249624
0.0249792
0.0250115
0.0249782
0.0249799
0.0250281
0.0250285
0.0250195
0.0250653
0.0250794
0.0250652
0.0250974
0.0251299
0.0250962
0.0250862
0.0251304
0.0251389
0.0250926
0.0250967
0.0251402
0.0251232
0.0250623
0.0250808
0.0251434
0.0251141
0.0250171
0.0250339
0.0251557
0.0251577
0.0249657
0.0248445
0.0250147
0.0252792
0.0252072
0.0247431
0.0244064
0.0247107
0.0254187
0.025659
0.0248451
0.02343
0.0226911
0.0236977
0.0261256
0.0278971
0.0265666
0.021604
0.0149087
0.00891423
0.00477264
0.00235284
0.00108874
0.000484844
0.000207897
8.0166e-05
3.068e-05
1.50607e-05
4.25906e-06
1.4109e-06
1.29402e-06
9.58809e-07
8.30457e-07
1.92706e-07
4.01973e-07
9.72832e-08
1.54942e-07
5.00565e-08
3.60167e-08
2.40865e-08
8.05431e-09
5.40773e-09
1.32928e-09
1.67436e-09
5.37175e-10
4.46312e-10
2.0186e-10
1.31089e-10
1.5499e-10
5.21866e-10
3.61137e-10
2.25084e-10
1.13367e-10
2.00772e-10
5.25755e-10
2.07472e-10
5.13273e-10
5.40286e-11
1.25461e-10
1.64327e-10
3.0753e-10
2.37239e-10
1.92272e-10
1.5272e-10
7.18431e-11
6.00827e-11
5.54917e-12
2.11652e-12
1.831e-11
1.81817e-11
1.30234e-11
1.13505e-11
1.19189e-11
1.06371e-11
9.29231e-12
8.81153e-12
7.51573e-12
5.99051e-12
5.67955e-12
3.80798e-12
2.75518e-12
2.82259e-12
1.00127e-12
7.0881e-13
3.39416e-13
7.50417e-13
5.10086e-13
1.07785e-12
1.00698e-12
6.27196e-13
1.19589e-12
1.24456e-12
1.72729e-12
7.62749e-13
1.4051e-12
1.55503e-12
1.91075e-13
9.06537e-13
8.48214e-13
2.26785e-13
4.94608e-13
4.0944e-13
4.56149e-13
2.51229e-13
2.65521e-13
2.40639e-13
0
0
0
0
0
0
0
0
0
0
0
0
0
0
0
0
0
0
0
0
0
0
0
0
0
0
0
0
0
0
0
0
0
0
0
0
0
0
0
0
0
0
0
0
0
0
0
0
0
0
0
0
0
0
0
0
0
0
0
0
0
0
0
0
0
0
0
0
0
0
0
0
0
0
0
0
0
0
0
0
0
0
0
0
0
0
0
0
0
0
0
0
0
0
0
0
0
0
0
0
0
0
0
0
0
0
0
0
0
0
0
0
0
0
0
0
0
0
0
0
0
0
0
0
0
0
0
0
0
0
0
0
0
0
0
0
0
0
0
0
0
0
0
0
0
0
0
0
0
0
0
0
0
0
0
0
0
0
0
0
0
0
0
0
0
0
0
0
0
0
0
0
0
0
0
0
0
0
0
0
0
0
0
0
0
0
0
0
0
0.04
0.0248774
0.025599
0.0258737
0.02585
0.0256625
0.0255446
0.0256255
0.0255818
0.0247591
0.0244778
0.0249413
0.0252051
0.0246718
0.0248014
0.0249946
0.0252677
0.0248973
0.0251305
0.0251522
0.0252806
0.0251204
0.0252623
0.0252713
0.0252857
0.0252536
0.0253139
0.025316
0.0253014
0.0253068
0.0253275
0.0253189
0.0253067
0.0253139
0.0253148
0.0253017
0.0252942
0.0252948
0.0252862
0.0252741
0.0252685
0.0252635
0.0252512
0.0252434
0.0252371
0.0252241
0.0252137
0.0252094
0.0251916
0.0251723
0.0251726
0.025159
0.0251259
0.025125
0.025128
0.0250939
0.0250789
0.0250943
0.02508
0.025054
0.0250607
0.025067
0.0250471
0.0250444
0.0250592
0.0250495
0.025047
0.0250691
0.0250627
0.0250482
0.025071
0.0250694
0.0250329
0.0250379
0.0250465
0.024997
0.0249842
0.0250125
0.0249745
0.0249433
0.0250041
0.025012
0.0249567
0.0249973
0.025071
0.0250382
0.0250172
0.0250876
0.0251195
0.0250719
0.02507
0.0251255
0.0251316
0.0250853
0.0250934
0.025145
0.025128
0.0250584
0.0250724
0.025153
0.0251419
0.0250319
0.0250156
0.0251359
0.0251693
0.0249988
0.0248715
0.0250161
0.0252507
0.0251868
0.0247699
0.0244468
0.0247069
0.0253846
0.0256458
0.0248629
0.023449
0.0226725
0.0236134
0.0259949
0.0278001
0.0265754
0.0217122
0.0150477
0.00902085
0.00483501
0.00239321
0.00111187
0.000487611
0.000210388
8.95601e-05
3.07789e-05
1.08637e-05
7.89376e-06
1.85039e-06
1.42073e-06
1.03874e-06
8.4242e-07
5.95869e-07
1.65458e-07
3.10925e-07
5.38093e-08
9.1988e-08
3.29037e-08
2.43867e-08
9.30238e-09
3.89966e-09
3.6679e-09
7.50273e-10
3.98566e-10
5.00303e-10
2.17221e-10
1.62756e-10
1.61234e-10
1.39004e-10
2.05344e-10
2.28819e-10
3.12016e-10
1.57531e-10
2.90715e-10
2.53253e-10
4.74439e-10
1.00971e-10
2.53938e-10
2.06283e-10
5.06065e-11
3.59884e-10
6.95762e-11
2.73553e-10
1.02915e-10
1.12173e-10
7.34433e-11
2.49696e-11
3.17837e-11
9.56451e-12
1.55256e-11
8.84656e-12
8.52026e-12
8.17859e-12
6.83133e-12
6.0272e-12
6.15478e-12
3.77508e-12
3.74581e-12
4.29624e-12
1.20882e-12
1.87359e-12
1.71595e-12
9.48816e-13
5.32647e-13
4.32308e-13
6.90302e-13
6.87759e-13
1.25284e-12
6.07168e-13
1.07863e-12
1.39445e-12
1.30607e-12
8.36658e-13
1.32599e-12
1.37422e-12
2.83129e-13
8.85178e-13
8.06462e-13
2.05505e-13
4.72035e-13
3.86207e-13
4.12183e-13
2.26262e-13
2.48913e-13
2.29344e-13
0
0
0
0
0
0
0
0
0
0
0
0
0
0
0
0
0
0
0
0
0
0
0
0
0
0
0
0
0
0
0
0
0
0
0
0
0
0
0
0
0
0
0
0
0
0
0
0
0
0
0
0
0
0
0
0
0
0
0
0
0
0
0
0
0
0
0
0
0
0
0
0
0
0
0
0
0
0
0
0
0
0
0
0
0
0
0
0
0
0
0
0
0
0
0
0
0
0
0
0
0
0
0
0
0
0
0
0
0
0
0
0
0
0
0
0
0
0
0
0
0
0
0
0
0
0
0
0
0
0
0
0
0
0
0
0
0
0
0
0
0
0
0
0
0
0
0
0
0
0
0
0
0
0
0
0
0
0
0
0
0
0
0
0
0
0
0
0
0
0
0
0
0
0
0
0
0
0
0
0
0
0
0
0
0
0
0
0
0
0.04
0.0254888
0.0259869
0.0255911
0.0258222
0.0259922
0.0258846
0.0255919
0.0251995
0.025056
0.0253277
0.0250949
0.0247937
0.0247865
0.0252892
0.0250256
0.0250264
0.0249629
0.0253318
0.0251151
0.0251813
0.0251729
0.0253197
0.0252216
0.0252565
0.0252859
0.025313
0.0252786
0.0252973
0.0253172
0.0253085
0.0252967
0.0253074
0.0253104
0.0252964
0.0252919
0.0252944
0.025287
0.0252749
0.0252713
0.0252662
0.0252546
0.0252451
0.0252395
0.0252263
0.0252154
0.0252114
0.025195
0.0251764
0.0251773
0.0251639
0.0251319
0.0251303
0.0251344
0.0251012
0.0250862
0.0251041
0.0250921
0.0250659
0.0250766
0.025087
0.0250675
0.0250647
0.0250783
0.0250652
0.0250592
0.0250756
0.0250679
0.0250587
0.0250773
0.0250791
0.0250542
0.0250546
0.0250645
0.0250324
0.0250046
0.0250235
0.0250018
0.0249477
0.0249679
0.0249939
0.0249424
0.0249441
0.0250192
0.0250176
0.0249756
0.0250143
0.0250727
0.0250675
0.0250501
0.0250758
0.0251183
0.0251086
0.0250613
0.0250701
0.0251346
0.0251317
0.0250625
0.0250606
0.0251279
0.0251131
0.025007
0.0249922
0.0251284
0.0251877
0.0249958
0.0247973
0.024924
0.0252231
0.0252173
0.0247937
0.0244113
0.0246015
0.0252728
0.0256193
0.0249256
0.0235035
0.0226263
0.0234693
0.025848
0.0277708
0.026719
0.0219701
0.0153103
0.00921923
0.00495227
0.00244927
0.00114501
0.000507001
0.000209142
8.82133e-05
3.85594e-05
1.02327e-05
2.6769e-06
4.40323e-06
7.43838e-07
1.56558e-06
6.4001e-07
6.02307e-07
4.69876e-07
1.54041e-07
1.82632e-07
3.94749e-08
5.90317e-08
1.18162e-08
1.09805e-08
5.67228e-09
2.16279e-09
5.01491e-10
5.13095e-10
3.56838e-10
2.12314e-10
2.90651e-10
8.47757e-11
3.45584e-10
3.27244e-10
2.3644e-10
4.00031e-11
5.09317e-10
4.07483e-10
1.93869e-10
9.36596e-11
7.55833e-11
4.18132e-10
1.28093e-11
4.35665e-10
7.28072e-11
2.17975e-10
3.57089e-11
7.17085e-11
3.14029e-11
3.35925e-11
3.03536e-11
1.43677e-11
9.25866e-12
1.17133e-11
1.13887e-11
9.64522e-12
8.38408e-12
8.07628e-12
5.94083e-12
5.75572e-12
5.351e-12
3.42982e-12
4.5281e-12
2.41643e-12
1.39473e-12
2.87012e-12
4.86636e-13
4.04093e-13
7.64823e-13
9.59189e-13
3.78568e-13
9.08499e-13
7.62125e-13
7.00868e-13
1.28859e-12
1.05762e-12
6.7512e-13
1.25476e-12
1.19593e-12
2.8527e-13
8.63449e-13
7.58952e-13
1.8907e-13
4.52623e-13
3.58115e-13
3.65364e-13
1.98938e-13
2.29503e-13
2.17138e-13
0
0
0
0
0
0
0
0
0
0
0
0
0
0
0
0
0
0
0
0
0
0
0
0
0
0
0
0
0
0
0
0
0
0
0
0
0
0
0
0
0
0
0
0
0
0
0
0
0
0
0
0
0
0
0
0
0
0
0
0
0
0
0
0
0
0
0
0
0
0
0
0
0
0
0
0
0
0
0
0
0
0
0
0
0
0
0
0
0
0
0
0
0
0
0
0
0
0
0
0
0
0
0
0
0
0
0
0
0
0
0
0
0
0
0
0
0
0
0
0
0
0
0
0
0
0
0
0
0
0
0
0
0
0
0
0
0
0
0
0
0
0
0
0
0
0
0
0
0
0
0
0
0
0
0
0
0
0
0
0
0
0
0
0
0
0
0
0
0
0
0
0
0
0
0
0
0
0
0
0
0
0
0
0
0
0
0
0
0
0.04
0.0254369
0.0255049
0.0254651
0.0257605
0.0256494
0.025679
0.0255051
0.0253576
0.025394
0.0252428
0.0248443
0.0250599
0.0251766
0.0251589
0.0247857
0.0251929
0.0251623
0.0252113
0.0249856
0.0252713
0.0252283
0.0252282
0.0251729
0.025297
0.025274
0.0252528
0.0252655
0.0253063
0.0252865
0.0252747
0.0252935
0.0252993
0.0252822
0.0252795
0.0252886
0.0252813
0.0252688
0.025268
0.0252661
0.0252529
0.0252437
0.025239
0.0252274
0.0252141
0.0252092
0.0251949
0.0251756
0.025176
0.025167
0.0251368
0.0251372
0.0251428
0.0251099
0.0250957
0.0251139
0.0251028
0.025078
0.0250871
0.025103
0.0250861
0.0250762
0.0250934
0.0250866
0.025076
0.0250885
0.0250767
0.0250645
0.0250822
0.0250761
0.0250574
0.025069
0.0250818
0.0250596
0.0250359
0.0250393
0.0250291
0.0249868
0.0249785
0.0249854
0.0249472
0.0249335
0.0249647
0.0249479
0.0249313
0.0249892
0.0250172
0.0250015
0.0250254
0.0250503
0.0250459
0.025086
0.025113
0.0250778
0.0250775
0.0251411
0.0251287
0.0250484
0.0250587
0.0251557
0.0251506
0.0250344
0.0249955
0.0250973
0.0251594
0.0250243
0.0248483
0.0249376
0.0252155
0.0252128
0.0247766
0.0243841
0.0245868
0.0252779
0.025641
0.0249467
0.0234911
0.0225561
0.0233483
0.0257275
0.0277222
0.0267761
0.0221054
0.015457
0.009328
0.00501948
0.00248166
0.00115262
0.000516416
0.000219403
8.29794e-05
3.55466e-05
1.80351e-05
2.74009e-06
4.02068e-07
3.14683e-06
4.47562e-07
1.23706e-06
5.14392e-07
4.69949e-07
2.7886e-07
1.03393e-07
1.11997e-07
1.96125e-08
2.7515e-08
7.00556e-09
6.16571e-09
1.69877e-09
3.35417e-10
6.01675e-10
3.13443e-10
1.99089e-10
1.99632e-10
1.3953e-10
1.98981e-10
2.74341e-10
1.59364e-10
2.71071e-10
1.92125e-10
3.09596e-10
2.13023e-10
3.57424e-10
1.37274e-10
3.67777e-11
2.85289e-10
1.83468e-10
3.67614e-10
5.01639e-11
2.43538e-10
6.99746e-11
8.90978e-11
6.36714e-11
1.30265e-11
3.14983e-11
1.29119e-11
1.24358e-11
1.02562e-11
1.18058e-11
8.57989e-12
8.35556e-12
7.55067e-12
5.4634e-12
5.78679e-12
4.34639e-12
3.79099e-12
3.61932e-12
1.89285e-12
2.96261e-12
1.1068e-12
4.07132e-13
1.2541e-12
7.23015e-13
4.43221e-13
4.64159e-13
8.67974e-13
5.50819e-13
9.71562e-13
9.13282e-13
5.40547e-13
1.09204e-12
1.03878e-12
2.92594e-13
8.42086e-13
7.05734e-13
1.76876e-13
4.36066e-13
3.25614e-13
3.16655e-13
1.69806e-13
2.07773e-13
2.04188e-13
0
0
0
0
0
0
0
0
0
0
0
0
0
0
0
0
0
0
0
0
0
0
0
0
0
0
0
0
0
0
0
0
0
0
0
0
0
0
0
0
0
0
0
0
0
0
0
0
0
0
0
0
0
0
0
0
0
0
0
0
0
0
0
0
0
0
0
0
0
0
0
0
0
0
0
0
0
0
0
0
0
0
0
0
0
0
0
0
0
0
0
0
0
0
0
0
0
0
0
0
0
0
0
0
0
0
0
0
0
0
0
0
0
0
0
0
0
0
0
0
0
0
0
0
0
0
0
0
0
0
0
0
0
0
0
0
0
0
0
0
0
0
0
0
0
0
0
0
0
0
0
0
0
0
0
0
0
0
0
0
0
0
0
0
0
0
0
0
0
0
0
0
0
0
0
0
0
0
0
0
0
0
0
0
0
0
0
0
0
0.04
0.0247787
0.0249443
0.0256031
0.0257624
0.0255352
0.025616
0.0255767
0.0255464
0.0253131
0.0251326
0.0251822
0.0253536
0.0249791
0.0250463
0.0250928
0.0253585
0.0249703
0.0251559
0.0251738
0.0253188
0.0251039
0.0252243
0.0252623
0.025282
0.0252099
0.0252698
0.0252949
0.0252747
0.0252603
0.0252903
0.0252928
0.0252727
0.0252747
0.0252857
0.0252757
0.0252628
0.0252654
0.0252637
0.0252502
0.0252417
0.0252394
0.0252269
0.0252134
0.025208
0.0251957
0.0251772
0.025176
0.0251696
0.0251413
0.0251402
0.025151
0.0251205
0.0251072
0.0251294
0.0251181
0.0250917
0.0250992
0.0251149
0.0251032
0.0250891
0.0251056
0.0251094
0.0250932
0.0250985
0.0250932
0.0250809
0.0250882
0.0250816
0.0250664
0.025071
0.025071
0.0250612
0.0250528
0.0250554
0.0250471
0.0250167
0.0250025
0.0250012
0.0249559
0.0249268
0.0249576
0.0249318
0.0248817
0.0249353
0.0249688
0.0249038
0.0249423
0.0250399
0.0250079
0.0249753
0.0250737
0.0251081
0.0250418
0.0250556
0.0251514
0.0251446
0.0250549
0.0250624
0.0251702
0.0251521
0.0250011
0.0249768
0.0251286
0.0251849
0.0250054
0.0248011
0.0248745
0.0251717
0.0252279
0.024809
0.0243618
0.024507
0.0251974
0.0256188
0.024985
0.023526
0.0225274
0.0232524
0.0256171
0.0276987
0.0269002
0.0223252
0.0156786
0.0094964
0.00512316
0.00254159
0.00118135
0.000521128
0.000227474
9.32772e-05
2.96216e-05
1.38296e-05
9.24517e-06
1.47795e-06
1.21119e-06
2.1848e-06
3.93615e-07
9.75861e-07
2.87337e-07
3.04101e-07
1.74749e-07
6.83382e-08
5.26082e-08
1.11342e-08
1.38809e-08
1.14323e-09
1.85543e-09
1.2726e-09
3.96205e-10
3.98885e-10
3.27632e-10
2.56885e-10
3.30328e-10
2.81434e-10
4.6109e-10
3.4907e-10
1.1535e-10
3.16743e-10
1.9178e-10
2.01104e-10
2.65373e-10
3.14401e-10
5.1236e-10
1.70082e-10
3.50843e-10
9.21081e-11
1.29943e-10
9.67502e-11
5.23885e-11
8.02248e-11
3.18874e-11
3.48799e-11
2.55008e-11
1.6917e-11
1.83628e-11
8.34385e-12
1.08658e-11
9.77116e-12
7.15294e-12
8.10257e-12
5.95978e-12
4.5054e-12
4.8908e-12
3.74922e-12
3.63654e-12
2.56338e-12
2.67451e-12
1.82973e-12
7.0594e-13
1.22131e-12
2.77334e-13
5.41085e-13
3.29731e-13
7.86086e-13
5.11582e-13
6.81321e-13
7.45908e-13
4.5855e-13
9.20381e-13
8.8318e-13
3.03145e-13
8.18035e-13
6.47343e-13
1.68505e-13
4.21575e-13
2.89373e-13
2.66897e-13
1.39273e-13
1.83828e-13
1.90552e-13
0
0
0
0
0
0
0
0
0
0
0
0
0
0
0
0
0
0
0
0
0
0
0
0
0
0
0
0
0
0
0
0
0
0
0
0
0
0
0
0
0
0
0
0
0
0
0
0
0
0
0
0
0
0
0
0
0
0
0
0
0
0
0
0
0
0
0
0
0
0
0
0
0
0
0
0
0
0
0
0
0
0
0
0
0
0
0
0
0
0
0
0
0
0
0
0
0
0
0
0
0
0
0
0
0
0
0
0
0
0
0
0
0
0
0
0
0
0
0
0
0
0
0
0
0
0
0
0
0
0
0
0
0
0
0
0
0
0
0
0
0
0
0
0
0
0
0
0
0
0
0
0
0
0
0
0
0
0
0
0
0
0
0
0
0
0
0
0
0
0
0
0
0
0
0
0
0
0
0
0
0
0
0
0
0
0
0
0
0
0.04
0.0251296
0.0255323
0.0254339
0.0253536
0.0255606
0.0256323
0.0254813
0.025441
0.0252857
0.0253073
0.0252591
0.0251726
0.0249765
0.0253067
0.0251231
0.0251516
0.0249859
0.0253435
0.025145
0.0251713
0.0251315
0.0253156
0.0252086
0.0252027
0.0252361
0.025294
0.025243
0.0252411
0.0252764
0.0252821
0.0252553
0.0252615
0.025278
0.0252664
0.025252
0.0252576
0.0252576
0.0252423
0.0252343
0.0252341
0.0252243
0.0252103
0.0252063
0.0251968
0.0251796
0.0251771
0.0251725
0.0251475
0.0251454
0.0251574
0.0251316
0.0251171
0.025141
0.0251328
0.0251062
0.025115
0.0251314
0.0251167
0.0250967
0.0251137
0.0251229
0.0251035
0.0251055
0.0251095
0.0251015
0.0250998
0.0250831
0.0250805
0.0250847
0.0250656
0.0250582
0.0250649
0.0250549
0.0250506
0.0250397
0.0250199
0.0250207
0.0249998
0.0249408
0.024934
0.0249392
0.0248747
0.0248653
0.0249105
0.0248616
0.0248397
0.0249519
0.0249705
0.0249028
0.0249749
0.0250936
0.0250647
0.0250217
0.0250919
0.0251819
0.0251668
0.0250893
0.0250848
0.025189
0.0252096
0.025062
0.0249944
0.0251433
0.0252158
0.0250155
0.0248024
0.0248978
0.0252012
0.0252428
0.0247944
0.0243149
0.0244648
0.0251964
0.0256485
0.0250129
0.0235111
0.0224396
0.0231245
0.0255163
0.0276684
0.0269705
0.0224793
0.0158332
0.00960017
0.00518282
0.00257072
0.00119852
0.000527612
0.000220335
9.69988e-05
3.87123e-05
7.84554e-06
5.4279e-06
5.73449e-06
1.58796e-06
1.12349e-06
1.61258e-06
2.58166e-07
6.44878e-07
1.91959e-07
1.8764e-07
8.03402e-08
3.59889e-08
2.5609e-08
4.14574e-09
5.10438e-09
1.19564e-09
4.79171e-10
1.59714e-10
1.52022e-10
1.68468e-10
4.06892e-10
1.83221e-10
3.00071e-10
3.54038e-10
1.33259e-10
2.60715e-10
3.17226e-10
2.2981e-10
1.95695e-10
6.00776e-11
5.38653e-11
3.48647e-10
1.92603e-10
3.60861e-10
2.83287e-10
1.16055e-10
1.74193e-10
5.56773e-11
3.55415e-11
5.64101e-11
1.85704e-11
1.98727e-11
1.34514e-11
1.55547e-11
1.12687e-11
9.03365e-12
9.44065e-12
7.3091e-12
6.99363e-12
6.84555e-12
3.78421e-12
4.54479e-12
4.43639e-12
3.22772e-12
2.91698e-12
2.72566e-12
2.08644e-12
1.14022e-12
1.05274e-12
1.60417e-13
4.25115e-13
3.20583e-13
6.88197e-13
4.19355e-13
4.76065e-13
5.97829e-13
3.73574e-13
7.41727e-13
7.33543e-13
3.14652e-13
7.88849e-13
5.83851e-13
1.63709e-13
4.08571e-13
2.50166e-13
2.17172e-13
1.07965e-13
1.58052e-13
1.76404e-13
0
0
0
0
0
0
0
0
0
0
0
0
0
0
0
0
0
0
0
0
0
0
0
0
0
0
0
0
0
0
0
0
0
0
0
0
0
0
0
0
0
0
0
0
0
0
0
0
0
0
0
0
0
0
0
0
0
0
0
0
0
0
0
0
0
0
0
0
0
0
0
0
0
0
0
0
0
0
0
0
0
0
0
0
0
0
0
0
0
0
0
0
0
0
0
0
0
0
0
0
0
0
0
0
0
0
0
0
0
0
0
0
0
0
0
0
0
0
0
0
0
0
0
0
0
0
0
0
0
0
0
0
0
0
0
0
0
0
0
0
0
0
0
0
0
0
0
0
0
0
0
0
0
0
0
0
0
0
0
0
0
0
0
0
0
0
0
0
0
0
0
0
0
0
0
0
0
0
0
0
0
0
0
0
0
0
0
0
0
0.04
0.0252892
0.0253904
0.0252051
0.0254741
0.0256224
0.0255052
0.0254255