# vtk DataFile Version 3.0
LBM output step 1970
ASCII
DATASET STRUCTURED_POINTS
DIMENSIONS 400 100 1
ORIGIN 0 0 0
SPACING 1 1 1
POINT_DATA 40000
SCALARS velocity_magnitude double 1
LOOKUP_TABLE default
0
0
0
0
0
0
0
0
0
0
0
0
0
0
0
0
0
0
0
0
0
0
0
0
0
0
0
0
0
0
0
0
0
0
0
0
0
0
0
0
0
0
0
0
0
0
0
0
0
0
0
0
0
0
0
0
0
0
0
0
0
0
0
0
0
0
0
0
0
0
0
0
0
0
0
0
0
0
0
0
0
0
0
0
0
0
0
0
0
0
0
0
0
0
0
0
0
0
0
0
0
0
0
0
0
0
0
0
0
0
0
0
0
0
0
0
0
0
0
0
0
0
0
0
0
0
0
0
0
0
0
0
0
0
0
0
0
0
0
0
0
0
0
0
0
0
0
0
0
0
0
0
0
0
0
0
0
0
0
0
0
0
0
0
0
0
0
0
0
0
0
0
0
0
0
0
0
0
0
0
0
0
0
0
0
0
0
0
0
0
0
0
0
0
0
0
0
0
0
0
0
0
0
0
0
0
0
0
0
0
0
0
0
0
0
0
0
0
0
0
0
0
0
0
0
0
0
0
0
0
0
0
0
0
0
0
0
0
0
0
0
0
0
0
0
0
0
0
0
0
0
0
0
0
0
0
0
0
0
0
0
0
0
0
0
0
0
0
0
0
0
0
0
0
0
0
0
0
0
0
0
0
0
0
0
0
0
0
0
0
0
0
0
0
0
0
0
0
0
0
0
0
0
0
0
0
0
0
0
0
0
0
0
0
0
0
0
0
0
0
0
0
0
0
0
0
0
0
0
0
0
0
0
0
0
0
0
0
0
0
0
0
0
0
0
0
0
0
0
0
0
0
0
0
0
0
0
0
0
0
0
0
0
0
0
0
0
0
0
0
0
0
0
0
0
0
0
0
0
0
0
0
0
0
0
0
0
0
0
0
0
0
0
0
0
0
0
0
0
0
0.04
0.0176853
0.0115016
0.0140759
0.0173263
0.0173297
0.0139368
0.0126075
0.0124287
0.0124544
0.0120531
0.0119509
0.0116125
0.0113667
0.0111916
0.0111612
0.0109771
0.0108347
0.0107167
0.010639
0.0105043
0.0104156
0.0103259
0.0102395
0.0101328
0.0100576
0.00997289
0.00988788
0.00979818
0.00972484
0.00964144
0.00956057
0.00948033
0.00940742
0.00932778
0.00925296
0.00917975
0.00911005
0.00903784
0.00897117
0.00890593
0.00884334
0.00878121
0.00872396
0.00866792
0.00861453
0.00856284
0.00851481
0.00846796
0.00842372
0.00838118
0.00834129
0.00830263
0.00826605
0.00823079
0.00819754
0.00816531
0.00813459
0.00810512
0.00807737
0.00805061
0.00802546
0.008002
0.00798026
0.00796
0.00794188
0.00792567
0.00791119
0.00789871
0.0078882
0.00787921
0.00787182
0.00786628
0.0078617
0.00785818
0.007856
0.00785483
0.0078536
0.00785341
0.00785401
0.00785467
0.00785472
0.00785591
0.00785682
0.00785691
0.00785594
0.00785555
0.00785324
0.00784923
0.00784314
0.00783642
0.00782596
0.00781312
0.007797
0.00777927
0.0077566
0.00773168
0.00770268
0.00767187
0.00763572
0.00759825
0.00755614
0.00751288
0.00746443
0.00741596
0.00736233
0.00730885
0.00725014
0.00719253
0.00712901
0.00706713
0.00699927
0.00693359
0.00686118
0.00679197
0.00671559
0.00664297
0.00656286
0.00648791
0.00640501
0.00632858
0.00624461
0.00616886
0.0060853
0.00601187
0.00593113
0.00586154
0.00578404
0.00571926
0.00564597
0.00558524
0.00551536
0.00545887
0.00539195
0.00533825
0.00527432
0.00522412
0.0051631
0.00511652
0.00506031
0.00501884
0.00496824
0.00493336
0.00489057
0.004863
0.00482831
0.0048088
0.00478248
0.00476973
0.00475068
0.0047439
0.00473057
0.00472758
0.00471867
0.00471847
0.00471247
0.00471382
0.0047104
0.00471299
0.00471149
0.00471518
0.00471582
0.00472061
0.00472309
0.00472905
0.00473329
0.00474004
0.00474545
0.00475261
0.00475849
0.00476527
0.00477083
0.0047766
0.00478107
0.00478527
0.00478826
0.00479066
0.00479195
0.00479265
0.00479247
0.00479173
0.00479039
0.00478867
0.00478654
0.00478411
0.00478142
0.00477847
0.00477523
0.00477166
0.00476774
0.00476337
0.00475849
0.00475304
0.00474698
0.00474031
0.00473305
0.00472531
0.00471726
0.00470911
0.00470114
0.00469366
0.00468696
0.00468134
0.004677
0.0046741
0.00467269
0.00467272
0.0046741
0.00467666
0.00468017
0.00468444
0.00468927
0.00469451
0.00470005
0.00470585
0.00471193
0.00471836
0.00472528
0.00473283
0.00474118
0.00475046
0.00476077
0.00477212
0.00478444
0.00479755
0.00481117
0.00482494
0.00483843
0.00485119
0.00486273
0.00487261
0.00488041
0.00488579
0.00488845
0.00488819
0.00488489
0.0048785
0.00486908
0.00485678
0.00484188
0.00482474
0.00480586
0.0047858
0.00476523
0.00474481
0.00472523
0.00470709
0.00469091
0.00467704
0.00466568
0.0046568
0.00465025
0.00464568
0.00464269
0.00464082
0.00463963
0.00463876
0.00463793
0.00463695
0.00463574
0.00463427
0.00463255
0.00463064
0.00462861
0.00462656
0.00462471
0.00462333
0.0046228
0.00462356
0.00462603
0.00463054
0.00463723
0.00464604
0.0046567
0.00466881
0.00468191
0.00469557
0.00470946
0.00472336
0.00473717
0.00475084
0.00476436
0.0047777
0.00479078
0.00480348
0.00481559
0.00482685
0.00483691
0.00484538
0.00485188
0.00485605
0.00485767
0.00485669
0.00485325
0.00484768
0.00484047
0.00483217
0.00482329
0.00481426
0.00480533
0.00479657
0.00478792
0.0047792
0.00477022
0.00476079
0.00475078
0.00474008
0.00472861
0.00471627
0.00470294
0.00468854
0.00467305
0.0046566
0.0046396
0.00462273
0.00460699
0.00459358
0.00458374
0.00457852
0.00457865
0.00458429
0.00459509
0.00461018
0.00462837
0.00464837
0.00466895
0.00468924
0.00470876
0.00472751
0.00474593
0.00476482
0.00478519
0.00480809
0.00483451
0.0048652
0.00490059
0.00494078
0.00498549
0.00503413
0.00508584
0.00513958
0.00519423
0.00524859
0.00530155
0.00535204
0.00539916
0.00544218
0.00548056
0.00551398
0.00554235
0.00556575
0.00558445
0.00559884
0.00560943
0.00561674
0.00562131
0.00562368
0.00562432
0.00562364
0.00562201
0.00561973
0.00561702
0.00561406
0.00561099
0.00560788
0.00560476
0.00560164
0.00559845
0.00559513
0.00559157
0.00558769
0.00558339
0.0055786
0.0055733
0.00556746
0.00556112
0.00555434
0.0055472
0.00553983
0.00553236
0.00552494
0.00551768
0.00551067
0.00550392
0.00549737
0.00549087
0.00548422
0.00547716
0.00546948
0.00546094
0.0054515
0.00544116
0.00543013
0.00541871
0.00540751
0.00539695
0.00538714
0.00537983
0.00537563
0.00537563
0.04
0.0278111
0.0304741
0.0280179
0.020228
0.0181764
0.0209455
0.0217992
0.0199742
0.0188285
0.0186193
0.0183418
0.0178699
0.017655
0.0173727
0.0169981
0.0167156
0.0165815
0.0163638
0.0161263
0.0159522
0.0158171
0.0156379
0.0154803
0.0153535
0.0152247
0.0150786
0.0149572
0.0148454
0.0147262
0.0146062
0.014503
0.0143999
0.0142942
0.0141944
0.0141042
0.0140128
0.0139241
0.0138429
0.0137674
0.013693
0.0136245
0.0135628
0.0135055
0.0134518
0.0134045
0.0133626
0.0133247
0.0132911
0.0132627
0.0132383
0.0132173
0.0131999
0.0131862
0.0131754
0.0131671
0.0131617
0.0131592
0.0131591
0.0131613
0.0131667
0.013175
0.0131859
0.0132002
0.0132183
0.0132392
0.0132637
0.0132924
0.0133245
0.0133592
0.0133983
0.0134407
0.013485
0.0135321
0.0135832
0.0136354
0.0136884
0.0137443
0.0138026
0.0138594
0.0139171
0.0139768
0.0140364
0.0140927
0.0141497
0.0142066
0.0142603
0.0143093
0.0143577
0.0144022
0.014441
0.0144733
0.014503
0.014525
0.0145399
0.014547
0.0145493
0.0145413
0.014527
0.0145033
0.0144739
0.0144335
0.0143884
0.0143322
0.0142715
0.0142002
0.0141252
0.0140384
0.0139504
0.0138503
0.0137486
0.0136356
0.0135239
0.0133983
0.0132755
0.0131412
0.0130105
0.0128657
0.0127294
0.0125799
0.0124388
0.0122853
0.0121457
0.0119921
0.0118543
0.0117046
0.0115739
0.0114287
0.0113055
0.0111684
0.011054
0.0109235
0.0108185
0.0106965
0.0106001
0.0104857
0.0103993
0.0102941
0.0102173
0.0101223
0.0100575
0.0099742
0.00992155
0.00985143
0.00981234
0.00975551
0.00972902
0.0096855
0.00967068
0.0096384
0.00963289
0.00961045
0.00961193
0.00959669
0.00960313
0.00959387
0.0096034
0.00959855
0.00961042
0.00960948
0.00962277
0.00962517
0.00963982
0.00964518
0.00966062
0.00966847
0.00968438
0.00969391
0.00970954
0.00971989
0.0097345
0.00974459
0.00975744
0.00976647
0.00977699
0.00978431
0.00979235
0.00979779
0.00980339
0.00980705
0.00981069
0.00981291
0.00981502
0.0098162
0.00981726
0.00981764
0.00981783
0.00981749
0.00981683
0.0098156
0.00981389
0.00981154
0.00980856
0.00980486
0.00980048
0.00979546
0.00978992
0.00978404
0.00977806
0.00977228
0.00976701
0.00976258
0.00975928
0.00975732
0.00975686
0.00975796
0.00976058
0.00976459
0.00976983
0.00977608
0.0097831
0.0097907
0.00979871
0.00980701
0.00981554
0.00982431
0.00983338
0.00984287
0.0098529
0.00986362
0.00987515
0.00988756
0.00990086
0.00991494
0.00992962
0.00994461
0.00995952
0.00997391
0.00998732
0.00999924
0.0100092
0.0100168
0.0100216
0.0100234
0.0100219
0.010017
0.0100087
0.00999699
0.00998209
0.00996432
0.00994411
0.00992203
0.00989875
0.00987501
0.0098516
0.00982928
0.00980876
0.00979063
0.00977529
0.00976296
0.00975364
0.00974713
0.00974306
0.00974095
0.00974028
0.00974054
0.00974129
0.00974219
0.009743
0.00974361
0.00974396
0.00974408
0.00974402
0.00974388
0.0097438
0.009744
0.00974483
0.0097467
0.00975008
0.00975544
0.00976312
0.0097733
0.00978591
0.00980067
0.00981713
0.00983478
0.00985312
0.00987176
0.0098904
0.0099089
0.00992715
0.00994512
0.00996277
0.00998004
0.0099968
0.0100129
0.0100281
0.010042
0.0100543
0.0100646
0.0100726
0.010078
0.0100809
0.0100813
0.0100797
0.0100766
0.0100724
0.0100678
0.0100631
0.0100586
0.0100543
0.0100502
0.0100462
0.0100419
0.0100374
0.0100323
0.0100268
0.0100206
0.0100137
0.010006
0.00999747
0.00998812
0.00997817
0.00996809
0.00995867
0.00995096
0.00994623
0.00994571
0.00995046
0.00996113
0.00997786
0.0100002
0.0100272
0.0100576
0.0100901
0.0101235
0.0101567
0.0101893
0.0102214
0.0102533
0.0102859
0.0103201
0.010357
0.0103974
0.0104421
0.0104913
0.0105452
0.0106033
0.0106648
0.010729
0.0107944
0.0108601
0.0109246
0.0109869
0.0110458
0.0111004
0.01115
0.0111941
0.0112325
0.0112652
0.0112923
0.0113141
0.0113313
0.0113442
0.0113535
0.0113599
0.0113639
0.0113659
0.0113665
0.011366
0.0113647
0.0113629
0.0113607
0.0113583
0.0113557
0.0113531
0.0113503
0.0113473
0.0113441
0.0113405
0.0113365
0.0113321
0.0113271
0.0113216
0.0113156
0.0113092
0.0113024
0.0112953
0.0112882
0.0112811
0.0112742
0.0112676
0.0112615
0.0112557
0.0112503
0.011245
0.0112396
0.0112339
0.0112276
0.0112206
0.0112127
0.011204
0.0111948
0.0111852
0.0111756
0.0111669
0.0111598
0.0111542
0.0111502
0.0111502
0.04
0.0279588
0.0266984
0.024248
0.0253939
0.0274219
0.0265536
0.0246284
0.0244941
0.0249012
0.0242978
0.0234532
0.0230824
0.0228496
0.0224029
0.0220375
0.0217686
0.0214698
0.0211408
0.0209164
0.0207057
0.0204678
0.0202432
0.0200744
0.019895
0.0197106
0.0195461
0.0194025
0.0192472
0.0190995
0.0189668
0.01884
0.0187086
0.0185885
0.0184773
0.0183683
0.0182614
0.0181656
0.0180752
0.0179884
0.0179081
0.0178372
0.0177713
0.0177114
0.0176595
0.0176154
0.0175769
0.0175453
0.017521
0.017503
0.0174903
0.0174834
0.0174819
0.017485
0.0174921
0.0175031
0.0175181
0.0175365
0.0175577
0.0175826
0.0176114
0.0176433
0.0176787
0.0177191
0.0177635
0.0178116
0.0178651
0.0179236
0.0179859
0.018053
0.0181256
0.0182017
0.0182814
0.018366
0.0184542
0.018544
0.0186376
0.0187346
0.0188324
0.018931
0.0190329
0.0191352
0.0192361
0.0193371
0.0194395
0.0195384
0.0196342
0.0197282
0.01982
0.0199046
0.0199843
0.0200585
0.0201269
0.0201851
0.0202362
0.0202785
0.0203126
0.0203341
0.0203474
0.0203495
0.0203424
0.0203211
0.0202925
0.0202507
0.0201997
0.0201347
0.020064
0.0199778
0.019885
0.0197786
0.0196679
0.0195404
0.0194112
0.0192675
0.0191218
0.0189604
0.0188023
0.0186278
0.0184574
0.0182726
0.0180965
0.0179039
0.0177243
0.0175305
0.0173524
0.0171591
0.0169869
0.0167992
0.0166347
0.0164538
0.0163002
0.016128
0.015985
0.0158224
0.0156918
0.0155394
0.0154214
0.0152808
0.0151772
0.0150495
0.0149613
0.0148485
0.0147771
0.01468
0.0146258
0.0145454
0.0145079
0.0144429
0.0144206
0.0143698
0.0143601
0.014321
0.0143213
0.0142919
0.0142993
0.0142775
0.0142902
0.0142746
0.0142907
0.0142806
0.0142993
0.0142938
0.0143142
0.014313
0.0143345
0.0143369
0.0143586
0.0143639
0.0143851
0.0143922
0.014412
0.0144199
0.0144375
0.0144452
0.0144601
0.0144669
0.0144789
0.0144844
0.0144937
0.0144981
0.014505
0.0145084
0.0145136
0.0145162
0.01452
0.014522
0.0145247
0.0145261
0.0145278
0.0145284
0.0145289
0.0145285
0.0145277
0.014526
0.0145239
0.014521
0.0145178
0.0145142
0.0145106
0.0145071
0.0145041
0.0145019
0.0145007
0.0145007
0.0145021
0.014505
0.0145092
0.0145146
0.0145212
0.0145288
0.014537
0.0145459
0.0145551
0.0145646
0.0145744
0.0145844
0.0145948
0.0146056
0.014617
0.0146291
0.0146419
0.0146556
0.0146702
0.0146855
0.0147013
0.0147173
0.0147332
0.0147486
0.014763
0.014776
0.014787
0.0147958
0.014802
0.0148053
0.0148055
0.0148025
0.0147962
0.0147868
0.0147743
0.0147592
0.0147418
0.0147226
0.0147024
0.0146817
0.0146613
0.0146421
0.0146246
0.0146094
0.0145969
0.0145873
0.0145805
0.0145764
0.0145747
0.0145747
0.0145762
0.0145785
0.0145813
0.0145843
0.0145873
0.0145902
0.014593
0.0145956
0.0145981
0.0146006
0.0146032
0.0146061
0.0146096
0.0146141
0.0146201
0.014628
0.0146381
0.0146508
0.0146658
0.014683
0.0147018
0.0147218
0.0147425
0.0147635
0.0147847
0.0148058
0.0148267
0.0148476
0.0148683
0.0148887
0.0149086
0.014928
0.0149465
0.0149637
0.0149794
0.0149931
0.0150046
0.0150136
0.0150203
0.0150247
0.0150273
0.0150284
0.0150287
0.0150285
0.0150283
0.0150283
0.0150285
0.015029
0.0150296
0.0150301
0.0150304
0.0150304
0.0150301
0.0150293
0.0150278
0.0150257
0.0150229
0.0150192
0.0150149
0.0150105
0.0150066
0.0150042
0.0150046
0.0150088
0.015018
0.0150327
0.015053
0.0150787
0.0151088
0.0151421
0.0151774
0.0152134
0.0152492
0.0152845
0.015319
0.0153533
0.015388
0.0154241
0.0154626
0.0155042
0.0155498
0.0155996
0.0156537
0.0157118
0.0157732
0.015837
0.0159022
0.0159677
0.0160322
0.0160946
0.016154
0.0162093
0.0162599
0.0163053
0.0163453
0.0163797
0.0164087
0.0164325
0.0164516
0.0164664
0.0164774
0.0164853
0.0164905
0.0164936
0.0164952
0.0164955
0.016495
0.0164939
0.0164926
0.0164912
0.0164898
0.0164885
0.0164872
0.016486
0.0164847
0.0164833
0.0164815
0.0164793
0.0164766
0.0164732
0.0164691
0.0164644
0.0164592
0.0164534
0.0164473
0.016441
0.0164348
0.0164288
0.0164231
0.0164179
0.0164129
0.0164083
0.0164036
0.0163989
0.0163937
0.016388
0.0163817
0.0163747
0.0163673
0.0163597
0.016352
0.0163444
0.0163381
0.0163328
0.0163291
0.0163291
0.04
0.0296491
0.030998
0.0314307
0.031606
0.029265
0.0276487
0.0285853
0.0294722
0.0283651
0.0272706
0.0272933
0.0273045
0.0267193
0.0262014
0.0260148
0.0257306
0.0253378
0.0250519
0.0248426
0.024551
0.0242802
0.0240808
0.0238859
0.0236533
0.0234606
0.0232961
0.0231212
0.0229398
0.0227895
0.0226445
0.0224938
0.0223509
0.0222269
0.0221016
0.0219785
0.0218665
0.0217651
0.0216639
0.0215703
0.0214871
0.0214111
0.0213391
0.0212772
0.0212242
0.0211782
0.0211394
0.0211104
0.0210892
0.0210755
0.0210691
0.0210706
0.0210786
0.0210927
0.021112
0.0211368
0.0211664
0.0211998
0.0212368
0.0212786
0.021324
0.0213726
0.0214259
0.0214843
0.0215464
0.0216135
0.0216866
0.0217645
0.0218474
0.0219363
0.0220303
0.0221287
0.0222328
0.0223416
0.0224536
0.0225699
0.022691
0.0228139
0.022939
0.023068
0.0231992
0.0233293
0.0234613
0.0235953
0.0237279
0.0238571
0.023987
0.0241151
0.0242379
0.0243549
0.0244699
0.0245783
0.0246778
0.0247693
0.0248552
0.0249298
0.0249941
0.0250483
0.0250933
0.0251242
0.0251452
0.0251532
0.0251501
0.0251327
0.0251056
0.0250627
0.0250102
0.0249429
0.0248658
0.0247723
0.0246724
0.0245554
0.024431
0.0242915
0.0241478
0.0239858
0.0238225
0.023644
0.0234649
0.0232695
0.0230799
0.0228746
0.0226766
0.0224646
0.022266
0.0220521
0.0218549
0.0216438
0.0214534
0.0212469
0.0210649
0.0208662
0.0206951
0.0205047
0.0203457
0.020166
0.0200207
0.0198526
0.0197229
0.019569
0.0194567
0.019318
0.019225
0.0191037
0.0190304
0.0189263
0.0188729
0.0187859
0.0187501
0.0186783
0.0186587
0.0185999
0.0185927
0.0185448
0.0185479
0.0185084
0.018519
0.018487
0.0185034
0.0184775
0.018498
0.0184781
0.0185015
0.0184868
0.0185122
0.0185024
0.0185286
0.0185227
0.0185486
0.0185459
0.0185703
0.0185698
0.0185918
0.0185924
0.0186113
0.0186123
0.0186279
0.0186288
0.0186412
0.018642
0.0186516
0.0186523
0.0186597
0.0186604
0.018666
0.0186668
0.0186709
0.0186716
0.0186744
0.0186747
0.0186762
0.0186758
0.018676
0.0186746
0.0186735
0.0186714
0.0186693
0.0186667
0.0186644
0.0186622
0.0186607
0.0186598
0.01866
0.0186614
0.0186641
0.0186682
0.0186736
0.0186803
0.0186882
0.0186969
0.0187065
0.0187167
0.0187273
0.0187384
0.0187499
0.0187617
0.018774
0.0187868
0.0188002
0.0188143
0.0188293
0.0188451
0.0188616
0.0188788
0.0188965
0.0189143
0.018932
0.0189489
0.0189649
0.0189793
0.0189918
0.019002
0.0190097
0.0190144
0.0190161
0.0190147
0.01901
0.0190022
0.0189914
0.018978
0.0189623
0.018945
0.0189265
0.0189076
0.0188891
0.0188717
0.0188561
0.0188428
0.0188322
0.0188244
0.0188195
0.0188172
0.0188171
0.0188189
0.018822
0.018826
0.0188304
0.0188351
0.0188398
0.0188444
0.018849
0.0188535
0.018858
0.0188624
0.0188669
0.0188717
0.018877
0.0188833
0.0188911
0.0189008
0.0189127
0.0189271
0.0189438
0.0189627
0.0189832
0.0190049
0.0190272
0.0190499
0.0190727
0.0190954
0.0191181
0.0191406
0.019163
0.0191851
0.0192067
0.0192276
0.0192475
0.019266
0.0192828
0.0192975
0.01931
0.01932
0.0193276
0.0193331
0.0193367
0.019339
0.0193403
0.0193411
0.0193418
0.0193425
0.0193433
0.0193443
0.0193454
0.0193464
0.0193472
0.0193479
0.0193482
0.0193481
0.0193476
0.0193464
0.0193444
0.0193417
0.0193385
0.0193351
0.0193322
0.0193308
0.0193321
0.0193371
0.0193469
0.0193621
0.0193827
0.0194086
0.0194387
0.0194721
0.0195075
0.0195437
0.01958
0.0196157
0.0196508
0.0196857
0.019721
0.0197577
0.0197966
0.0198386
0.0198844
0.0199344
0.0199885
0.0200466
0.020108
0.0201719
0.0202373
0.020303
0.0203681
0.0204312
0.0204914
0.0205479
0.0205998
0.0206468
0.0206884
0.0207245
0.0207552
0.0207807
0.0208014
0.0208175
0.0208297
0.0208384
0.0208443
0.0208478
0.0208494
0.0208497
0.020849
0.0208478
0.0208463
0.0208448
0.0208434
0.0208423
0.0208415
0.0208408
0.0208402
0.0208396
0.0208387
0.0208374
0.0208355
0.0208328
0.0208294
0.0208251
0.0208199
0.020814
0.0208076
0.0208008
0.0207939
0.0207871
0.0207806
0.0207745
0.0207687
0.0207634
0.0207583
0.0207533
0.0207482
0.0207428
0.0207371
0.0207311
0.0207246
0.0207181
0.020712
0.0207063
0.0207013
0.0206971
0.0206944
0.0206944
0.04
0.0308934
0.0319921
0.0306445
0.030031
0.0304229
0.0317162
0.0312481
0.0298297
0.0296579
0.0304252
0.0302176
0.0293805
0.0290813
0.0291459
0.0288707
0.0284305
0.0282019
0.0280194
0.027724
0.0274467
0.0272608
0.027043
0.0267994
0.0266019
0.0264365
0.0262406
0.0260524
0.0258948
0.0257425
0.0255766
0.0254285
0.0252952
0.0251606
0.0250259
0.0249082
0.0247964
0.0246856
0.0245818
0.0244907
0.0244031
0.0243207
0.0242479
0.0241847
0.0241263
0.0240766
0.0240369
0.0240058
0.0239822
0.0239686
0.0239639
0.0239677
0.0239793
0.023999
0.0240256
0.0240589
0.0240974
0.0241409
0.0241896
0.0242427
0.0242989
0.0243598
0.0244256
0.0244951
0.0245689
0.0246488
0.0247338
0.0248234
0.0249194
0.0250212
0.0251279
0.0252404
0.0253588
0.0254813
0.0256089
0.0257417
0.0258778
0.0260168
0.026161
0.0263078
0.0264553
0.0266055
0.0267594
0.0269122
0.0270639
0.0272174
0.027371
0.0275194
0.0276654
0.0278099
0.0279498
0.0280814
0.028208
0.0283286
0.0284408
0.0285423
0.0286358
0.0287194
0.0287927
0.0288526
0.0289027
0.0289407
0.0289664
0.0289773
0.0289785
0.028965
0.0289384
0.0288973
0.0288466
0.0287783
0.0286989
0.0286056
0.0285021
0.0283804
0.0282523
0.0281086
0.0279567
0.0277891
0.0276194
0.0274331
0.0272455
0.0270447
0.0268472
0.0266349
0.0264303
0.0262134
0.0260073
0.025788
0.0255844
0.0253678
0.0251695
0.0249568
0.0247668
0.024561
0.0243809
0.0241833
0.024016
0.0238294
0.0236767
0.0235027
0.0233678
0.0232091
0.0230933
0.0229514
0.022857
0.0227325
0.0226587
0.0225515
0.0224981
0.0224061
0.0223705
0.0222922
0.0222722
0.0222045
0.0221973
0.022139
0.0221419
0.0220908
0.0221022
0.0220579
0.0220757
0.0220373
0.0220603
0.0220279
0.0220543
0.0220272
0.0220559
0.0220337
0.0220629
0.022045
0.0220733
0.0220587
0.0220848
0.0220729
0.0220958
0.0220858
0.0221051
0.0220967
0.0221123
0.0221053
0.0221176
0.0221118
0.0221213
0.0221168
0.0221241
0.0221207
0.022126
0.0221234
0.0221271
0.0221249
0.0221269
0.0221247
0.0221253
0.0221228
0.0221221
0.0221194
0.0221179
0.0221152
0.0221137
0.0221117
0.022111
0.0221106
0.0221116
0.0221134
0.0221168
0.0221214
0.0221273
0.0221344
0.0221427
0.0221518
0.0221619
0.0221725
0.0221838
0.0221955
0.0222078
0.0222205
0.0222337
0.0222475
0.022262
0.0222773
0.0222933
0.0223101
0.0223276
0.0223457
0.0223641
0.0223825
0.0224005
0.0224179
0.022434
0.0224486
0.0224613
0.0224716
0.0224794
0.0224843
0.0224862
0.022485
0.0224807
0.0224733
0.022463
0.0224501
0.022435
0.0224182
0.0224004
0.0223823
0.0223646
0.022348
0.0223332
0.0223207
0.0223109
0.0223039
0.0222997
0.022298
0.0222985
0.0223008
0.0223043
0.0223086
0.0223135
0.0223185
0.0223236
0.0223287
0.0223339
0.022339
0.0223441
0.0223492
0.0223545
0.0223599
0.0223659
0.0223728
0.022381
0.0223912
0.0224036
0.0224184
0.0224355
0.0224547
0.0224756
0.0224975
0.0225201
0.0225429
0.0225658
0.0225887
0.0226116
0.0226343
0.0226569
0.0226791
0.0227009
0.0227219
0.0227417
0.0227601
0.0227767
0.0227912
0.0228033
0.0228131
0.0228205
0.0228258
0.0228295
0.0228317
0.0228331
0.0228339
0.0228345
0.022835
0.0228356
0.0228363
0.0228369
0.0228376
0.0228382
0.0228387
0.022839
0.0228391
0.0228389
0.0228381
0.0228366
0.0228345
0.0228319
0.0228292
0.0228271
0.0228265
0.0228285
0.0228342
0.0228445
0.02286
0.0228809
0.0229067
0.0229368
0.0229701
0.0230053
0.0230415
0.0230777
0.0231135
0.0231487
0.0231838
0.0232193
0.023256
0.0232949
0.0233367
0.0233821
0.0234315
0.023485
0.0235423
0.023603
0.0236661
0.0237309
0.0237962
0.0238609
0.0239239
0.0239842
0.0240409
0.0240934
0.024141
0.0241834
0.0242205
0.0242522
0.0242787
0.0243002
0.0243171
0.0243298
0.0243389
0.0243448
0.0243482
0.0243495
0.0243494
0.0243482
0.0243464
0.0243444
0.0243424
0.0243407
0.0243394
0.0243384
0.0243379
0.0243376
0.0243373
0.0243369
0.024336
0.0243346
0.0243323
0.0243291
0.0243249
0.0243197
0.0243135
0.0243065
0.0242991
0.0242914
0.0242837
0.0242762
0.0242692
0.0242627
0.0242567
0.0242511
0.0242459
0.024241
0.024236
0.0242311
0.0242263
0.0242216
0.0242168
0.0242124
0.0242085
0.0242053
0.0242034
0.0242025
0.0242025
0.04
0.0288853
0.0293867
0.0306601
0.0314623
0.0313994
0.0312028
0.0307413
0.0312002
0.031718
0.0313058
0.0306464
0.0307964
0.0310524
0.0307323
0.0302954
0.0302308
0.0301901
0.029915
0.0296465
0.0295109
0.0293445
0.0291082
0.028924
0.0287777
0.028598
0.0284103
0.0282649
0.0281214
0.0279604
0.0278111
0.0276849
0.0275522
0.0274177
0.0272978
0.0271881
0.0270744
0.0269676
0.0268723
0.0267816
0.0266921
0.0266126
0.0265411
0.0264741
0.026413
0.0263622
0.0263187
0.0262826
0.0262557
0.026239
0.0262309
0.0262325
0.0262434
0.0262634
0.026292
0.0263283
0.0263709
0.0264205
0.0264757
0.0265348
0.0265985
0.0266676
0.0267402
0.0268163
0.0268982
0.0269852
0.0270761
0.0271729
0.027276
0.0273841
0.0274977
0.0276177
0.0277428
0.0278729
0.028009
0.0281493
0.0282934
0.0284428
0.0285963
0.0287512
0.02891
0.029073
0.0292367
0.0294001
0.029567
0.0297351
0.0299002
0.0300634
0.030228
0.0303891
0.0305437
0.0306942
0.0308425
0.0309824
0.0311131
0.0312377
0.0313555
0.031461
0.0315568
0.0316437
0.0317195
0.0317818
0.0318345
0.0318744
0.0319012
0.0319151
0.0319179
0.0319046
0.0318797
0.0318411
0.0317892
0.0317214
0.031644
0.03155
0.0314441
0.0313242
0.0311952
0.0310491
0.0308965
0.0307304
0.0305581
0.030372
0.0301854
0.0299861
0.0297877
0.0295786
0.0293753
0.0291606
0.0289546
0.0287383
0.0285343
0.0283187
0.0281185
0.0279064
0.0277135
0.027507
0.0273233
0.0271253
0.0269547
0.0267674
0.0266121
0.0264389
0.0263023
0.0261441
0.0260277
0.0258868
0.0257916
0.0256667
0.0255925
0.0254833
0.0254281
0.0253318
0.0252944
0.0252091
0.0251862
0.0251099
0.0251002
0.0250311
0.025032
0.0249693
0.0249798
0.0249227
0.0249406
0.0248893
0.0249133
0.0248672
0.0248953
0.0248545
0.0248849
0.0248487
0.0248796
0.0248477
0.0248771
0.0248489
0.0248756
0.0248508
0.0248739
0.0248522
0.0248714
0.0248527
0.0248681
0.0248524
0.0248644
0.0248514
0.0248605
0.02485
0.0248565
0.024848
0.0248523
0.0248453
0.0248476
0.0248415
0.024842
0.0248366
0.0248358
0.0248309
0.0248294
0.0248252
0.0248237
0.0248208
0.0248201
0.024819
0.02482
0.0248213
0.0248244
0.0248284
0.0248339
0.0248403
0.0248481
0.0248566
0.0248661
0.0248762
0.0248871
0.0248986
0.0249106
0.0249232
0.0249365
0.0249505
0.0249652
0.0249806
0.0249968
0.0250138
0.0250313
0.0250493
0.0250675
0.0250855
0.0251031
0.0251198
0.0251353
0.0251492
0.025161
0.0251706
0.0251776
0.0251818
0.0251831
0.0251813
0.0251764
0.0251686
0.025158
0.0251449
0.0251297
0.0251129
0.0250952
0.0250772
0.0250597
0.0250433
0.0250287
0.0250164
0.0250067
0.0249997
0.0249955
0.0249936
0.0249939
0.0249958
0.0249989
0.0250028
0.0250072
0.0250118
0.0250166
0.0250214
0.0250264
0.0250315
0.0250367
0.0250419
0.0250473
0.0250529
0.0250589
0.0250658
0.025074
0.0250841
0.0250963
0.0251109
0.0251278
0.0251466
0.0251671
0.0251885
0.0252105
0.0252329
0.0252552
0.0252776
0.0253
0.0253224
0.0253446
0.0253666
0.025388
0.0254086
0.025428
0.0254458
0.0254618
0.0254756
0.0254871
0.0254963
0.0255034
0.0255084
0.0255119
0.0255141
0.0255154
0.0255162
0.0255165
0.0255168
0.0255169
0.025517
0.0255171
0.0255172
0.0255174
0.0255176
0.0255178
0.0255179
0.0255178
0.0255173
0.0255163
0.0255147
0.0255127
0.0255107
0.0255093
0.0255094
0.025512
0.0255182
0.0255289
0.0255445
0.0255653
0.0255908
0.0256205
0.0256532
0.025688
0.0257237
0.0257595
0.0257949
0.0258299
0.0258646
0.0258996
0.0259358
0.0259739
0.0260148
0.0260592
0.0261073
0.0261594
0.0262152
0.0262744
0.0263362
0.0263997
0.026464
0.0265279
0.0265904
0.0266505
0.0267073
0.0267599
0.026808
0.026851
0.0268887
0.0269212
0.0269484
0.0269705
0.0269879
0.027001
0.0270102
0.0270161
0.0270192
0.0270201
0.0270194
0.0270175
0.0270151
0.0270124
0.0270098
0.0270076
0.0270059
0.0270046
0.0270039
0.0270035
0.0270033
0.027003
0.0270023
0.0270011
0.0269989
0.0269957
0.0269913
0.0269857
0.0269791
0.0269715
0.0269633
0.0269546
0.0269459
0.0269375
0.0269294
0.0269219
0.0269151
0.0269089
0.0269034
0.0268984
0.0268939
0.0268897
0.0268859
0.0268826
0.0268797
0.0268772
0.0268753
0.0268741
0.0268738
0.0268743
0.0268743
0.04
0.0287634
0.029469
0.0300748
0.0303329
0.0304677
0.030725
0.0312718
0.0317162
0.0312234
0.0310118
0.0315544
0.031819
0.0313458
0.0311216
0.0313655
0.0313984
0.0310766
0.0309106
0.0309269
0.0308084
0.0305822
0.0304549
0.030368
0.0302067
0.0300429
0.029934
0.029816
0.0296651
0.0295379
0.0294331
0.0293125
0.0291854
0.0290809
0.0289814
0.028873
0.0287711
0.0286838
0.0285953
0.0285064
0.0284272
0.028356
0.0282842
0.0282178
0.0281605
0.0281087
0.0280607
0.028022
0.0279922
0.0279698
0.0279562
0.0279535
0.0279602
0.0279766
0.0280025
0.0280372
0.0280802
0.028131
0.0281872
0.0282491
0.0283171
0.0283891
0.0284644
0.0285453
0.0286311
0.0287201
0.0288143
0.028915
0.0290203
0.0291305
0.0292475
0.0293699
0.0294973
0.0296308
0.0297695
0.0299124
0.0300611
0.0302143
0.0303702
0.0305303
0.0306959
0.0308626
0.0310305
0.0312031
0.0313784
0.0315509
0.0317242
0.0319003
0.0320743
0.0322426
0.0324104
0.0325765
0.0327359
0.0328879
0.0330361
0.0331776
0.0333102
0.0334334
0.0335489
0.033655
0.0337506
0.0338343
0.0339085
0.0339716
0.0340218
0.0340589
0.0340862
0.0340995
0.0340985
0.0340853
0.034061
0.0340194
0.0339655
0.0338996
0.0338199
0.0337236
0.0336186
0.0334993
0.0333678
0.0332233
0.0330725
0.0329075
0.0327365
0.0325553
0.0323715
0.0321766
0.0319824
0.0317794
0.0315796
0.0313705
0.0311678
0.0309567
0.0307544
0.0305427
0.0303434
0.0301348
0.0299417
0.029738
0.0295544
0.0293599
0.029189
0.0290054
0.028851
0.0286819
0.0285457
0.0283916
0.0282761
0.0281378
0.0280421
0.0279186
0.0278432
0.0277323
0.0276745
0.0275747
0.0275338
0.027442
0.0274157
0.0273313
0.0273183
0.0272392
0.027238
0.0271644
0.0271735
0.0271045
0.0271224
0.0270584
0.0270828
0.0270234
0.0270526
0.0269979
0.0270293
0.026979
0.0270106
0.0269646
0.0269944
0.0269528
0.0269796
0.0269423
0.0269652
0.0269324
0.0269513
0.0269229
0.0269379
0.0269139
0.0269252
0.0269052
0.0269134
0.0268969
0.0269021
0.0268883
0.0268909
0.0268793
0.0268798
0.0268699
0.0268688
0.0268605
0.0268586
0.026852
0.02685
0.0268452
0.0268441
0.0268415
0.0268419
0.0268419
0.0268442
0.0268468
0.0268514
0.0268565
0.0268632
0.0268705
0.0268789
0.0268879
0.0268979
0.0269084
0.0269198
0.0269318
0.0269446
0.0269581
0.0269724
0.0269875
0.0270034
0.02702
0.027037
0.0270544
0.0270719
0.0270891
0.0271057
0.0271213
0.0271356
0.0271482
0.0271588
0.0271671
0.0271728
0.0271758
0.0271758
0.0271729
0.0271671
0.0271583
0.0271469
0.0271331
0.0271172
0.0271
0.0270819
0.0270636
0.0270459
0.0270293
0.0270146
0.0270022
0.0269923
0.0269851
0.0269805
0.0269782
0.0269779
0.0269792
0.0269816
0.0269848
0.0269884
0.0269923
0.0269964
0.0270007
0.0270053
0.0270101
0.0270151
0.0270202
0.0270255
0.027031
0.027037
0.0270437
0.0270517
0.0270615
0.0270734
0.0270875
0.0271039
0.0271221
0.0271418
0.0271625
0.0271838
0.0272052
0.0272267
0.0272483
0.0272699
0.0272915
0.027313
0.0273343
0.027355
0.0273749
0.0273935
0.0274104
0.0274255
0.0274385
0.0274492
0.0274577
0.0274642
0.0274688
0.027472
0.027474
0.0274751
0.0274756
0.0274756
0.0274753
0.0274748
0.0274742
0.0274735
0.0274728
0.0274723
0.0274719
0.0274716
0.0274714
0.0274711
0.0274706
0.0274696
0.0274681
0.0274663
0.0274645
0.0274634
0.0274639
0.0274669
0.0274734
0.0274842
0.0274998
0.0275203
0.0275454
0.0275745
0.0276065
0.0276405
0.0276754
0.0277104
0.027745
0.0277791
0.0278129
0.027847
0.0278821
0.027919
0.0279585
0.0280013
0.0280477
0.0280981
0.0281522
0.0282097
0.02827
0.0283322
0.0283954
0.0284584
0.0285202
0.0285798
0.0286363
0.0286889
0.028737
0.0287801
0.0288181
0.0288508
0.0288782
0.0289005
0.028918
0.0289311
0.0289403
0.0289459
0.0289487
0.0289492
0.0289479
0.0289456
0.0289425
0.0289392
0.028936
0.0289332
0.0289309
0.0289291
0.0289279
0.028927
0.0289264
0.0289257
0.0289246
0.028923
0.0289204
0.0289168
0.0289119
0.0289058
0.0288986
0.0288903
0.0288813
0.0288718
0.0288623
0.0288529
0.0288439
0.0288356
0.028828
0.0288212
0.0288152
0.02881
0.0288057
0.0288022
0.0287993
0.0287971
0.0287956
0.0287948
0.0287948
0.0287955
0.0287968
0.0287987
0.0287987
0.04
0.0294906
0.0300654
0.0297547
0.0301461
0.0306237
0.0308199
0.0308785
0.0308953
0.0310903
0.0315908
0.031591
0.0312843
0.0313834
0.0317653
0.0317176
0.031453
0.0314688
0.0316167
0.0315184
0.0313364
0.0312991
0.031286
0.0311601
0.0310336
0.0309732
0.0308943
0.0307739
0.0306775
0.0306041
0.0305074
0.0304033
0.0303207
0.0302417
0.0301489
0.0300628
0.0299892
0.0299131
0.0298332
0.029763
0.029698
0.0296309
0.0295666
0.0295103
0.0294563
0.0294041
0.0293585
0.02932
0.0292859
0.0292594
0.0292421
0.0292335
0.029234
0.0292451
0.0292656
0.0292957
0.0293354
0.0293828
0.029437
0.0294988
0.0295662
0.0296373
0.0297139
0.0297961
0.0298812
0.0299707
0.0300667
0.030167
0.0302715
0.0303826
0.0304997
0.0306213
0.0307488
0.0308823
0.0310206
0.0311643
0.0313134
0.031466
0.0316236
0.0317866
0.0319521
0.0321196
0.0322929
0.0324693