# vtk DataFile Version 3.0
LBM output step 450
ASCII
DATASET STRUCTURED_POINTS
DIMENSIONS 400 100 1
ORIGIN 0 0 0
SPACING 1 1 1
POINT_DATA 40000
SCALARS velocity_magnitude double 1
LOOKUP_TABLE default
0
0
0
0
0
0
0
0
0
0
0
0
0
0
0
0
0
0
0
0
0
0
0
0
0
0
0
0
0
0
0
0
0
0
0
0
0
0
0
0
0
0
0
0
0
0
0
0
0
0
0
0
0
0
0
0
0
0
0
0
0
0
0
0
0
0
0
0
0
0
0
0
0
0
0
0
0
0
0
0
0
0
0
0
0
0
0
0
0
0
0
0
0
0
0
0
0
0
0
0
0
0
0
0
0
0
0
0
0
0
0
0
0
0
0
0
0
0
0
0
0
0
0
0
0
0
0
0
0
0
0
0
0
0
0
0
0
0
0
0
0
0
0
0
0
0
0
0
0
0
0
0
0
0
0
0
0
0
0
0
0
0
0
0
0
0
0
0
0
0
0
0
0
0
0
0
0
0
0
0
0
0
0
0
0
0
0
0
0
0
0
0
0
0
0
0
0
0
0
0
0
0
0
0
0
0
0
0
0
0
0
0
0
0
0
0
0
0
0
0
0
0
0
0
0
0
0
0
0
0
0
0
0
0
0
0
0
0
0
0
0
0
0
0
0
0
0
0
0
0
0
0
0
0
0
0
0
0
0
0
0
0
0
0
0
0
0
0
0
0
0
0
0
0
0
0
0
0
0
0
0
0
0
0
0
0
0
0
0
0
0
0
0
0
0
0
0
0
0
0
0
0
0
0
0
0
0
0
0
0
0
0
0
0
0
0
0
0
0
0
0
0
0
0
0
0
0
0
0
0
0
0
0
0
0
0
0
0
0
0
0
0
0
0
0
0
0
0
0
0
0
0
0
0
0
0
0
0
0
0
0
0
0
0
0
0
0
0
0
0
0
0
0
0
0
0
0
0
0
0
0
0
0
0
0
0
0
0
0
0
0
0
0
0
0
0
0
0
0
0
0.04
0.0145677
0.00878908
0.0143735
0.0163031
0.0156931
0.0125358
0.0120289
0.0119035
0.0118424
0.01136
0.0113206
0.01104
0.0109053
0.0108143
0.0108561
0.0107607
0.0107237
0.0107245
0.010744
0.0107198
0.0106965
0.0106766
0.0105854
0.0104826
0.0103179
0.0101685
0.00993813
0.00976833
0.00956625
0.00944791
0.00931254
0.00927381
0.00922986
0.00925387
0.00927003
0.00933111
0.00937615
0.00943963
0.0094951
0.00956626
0.00963466
0.00970733
0.00977026
0.00981978
0.00985255
0.00987849
0.00990865
0.00994862
0.00999511
0.0100349
0.0100549
0.0100487
0.0100254
0.0100034
0.0100027
0.010029
0.0100719
0.0101091
0.010119
0.0100901
0.0100331
0.00997663
0.00995405
0.00998932
0.0100889
0.0102336
0.0103855
0.0105054
0.0105636
0.0105453
0.0104574
0.0103236
0.0101701
0.0100207
0.00989536
0.00980438
0.00974658
0.00971948
0.00971964
0.00973959
0.00977154
0.0098133
0.00986195
0.00991344
0.00996553
0.0100194
0.0100738
0.0101267
0.0101777
0.0102283
0.010277
0.0103224
0.0103647
0.0104049
0.0104411
0.0104735
0.0105023
0.0105281
0.0105501
0.0105687
0.0105843
0.0105972
0.0106067
0.0106143
0.0106196
0.0106222
0.0106229
0.0106227
0.0106202
0.0106166
0.0106123
0.0106068
0.0105996
0.0105924
0.0105845
0.0105746
0.0105641
0.0105543
0.0105431
0.0105315
0.0105218
0.0105132
0.0105043
0.0104968
0.0104904
0.0104822
0.0104712
0.0104576
0.0104396
0.0104152
0.0103856
0.0103534
0.0103184
0.010282
0.0102481
0.0102181
0.0101891
0.0101602
0.01013
0.0100923
0.0100421
0.00997903
0.00990314
0.00981527
0.00972153
0.00963056
0.00954822
0.00947893
0.00942697
0.00939305
0.00937395
0.00936729
0.00937205
0.00938643
0.00940994
0.00944459
0.00949156
0.00954965
0.00961718
0.00969197
0.00976981
0.00984629
0.00992011
0.00999246
0.0100653
0.0101432
0.0102328
0.0103403
0.0104682
0.0106171
0.0107847
0.0109656
0.011152
0.0113368
0.011514
0.0116793
0.0118305
0.0119674
0.0120913
0.0122033
0.012305
0.0123971
0.0124795
0.0125511
0.012611
0.012658
0.0126915
0.0127125
0.0127234
0.0127278
0.0127293
0.0127313
0.012736
0.0127456
0.0127623
0.0127881
0.0128243
0.0128697
0.0129218
0.0129779
0.013037
0.0131003
0.0131687
0.0132421
0.0133212
0.0134063
0.0134967
0.0135907
0.0136894
0.0137953
0.0139067
0.014018
0.0141254
0.0142301
0.0143342
0.0144371
0.0145407
0.0146512
0.0147691
0.0148821
0.0149792
0.01507
0.0151779
0.0153105
0.0154452
0.0155555
0.0156463
0.015751
0.0158892
0.0160383
0.016158
0.0162401
0.0163202
0.0164359
0.0165843
0.0167359
0.0168825
0.0170467
0.0172319
0.0173873
0.0174526
0.0174516
0.0175252
0.0178307
0.0183722
0.0189343
0.0192144
0.0190602
0.0185896
0.0180733
0.0176856
0.0173395
0.0167431
0.0156611
0.0142123
0.0129659
0.0127291
0.0141168
0.0170546
0.0204262
0.0223415
0.0213168
0.0174826
0.0124288
0.00784658
0.00453307
0.00246151
0.00128086
0.000646446
0.000318611
0.000153908
7.30043e-05
3.40399e-05
1.56155e-05
7.05503e-06
3.144e-06
1.38538e-06
6.05812e-07
2.64131e-07
1.15558e-07
5.1193e-08
2.30158e-08
1.05123e-08
4.97844e-09
2.40031e-09
1.12743e-09
5.42674e-10
2.83378e-10
1.40362e-10
7.23803e-11
6.20451e-11
2.7999e-11
2.88164e-11
2.72031e-11
5.30821e-11
2.01429e-11
4.17687e-11
5.92144e-11
2.20418e-11
2.70366e-11
3.43815e-11
1.02614e-11
3.80003e-12
2.41489e-12
2.33551e-12
9.29373e-12
9.80485e-12
5.10957e-12
6.38215e-12
1.1333e-11
8.49582e-12
2.31638e-12
8.21704e-12
6.50004e-12
2.94406e-12
4.23633e-12
5.06911e-12
4.49619e-12
1.74549e-12
4.68335e-12
2.37568e-12
2.4012e-12
3.14803e-12
2.14528e-13
1.72193e-12
6.82389e-13
8.04941e-13
8.09553e-13
8.91919e-14
2.44731e-13
5.31527e-14
2.08582e-13
1.51092e-13
6.11265e-14
4.34468e-14
5.09322e-14
4.87028e-14
3.69988e-14
2.73981e-14
2.59378e-14
2.33434e-14
2.36665e-14
1.97271e-14
1.8007e-14
1.49308e-14
1.21102e-14
8.1646e-15
7.4782e-15
3.9088e-15
4.69859e-15
4.14096e-15
3.2163e-15
4.11077e-15
4.61331e-15
2.78401e-15
5.21623e-15
4.58902e-15
5.64748e-15
5.91227e-15
6.0738e-15
5.90204e-15
5.73841e-15
5.65773e-15
4.91474e-15
4.63502e-15
4.66964e-15
4.24834e-15
4.02661e-15
3.31608e-15
3.4022e-15
3.23222e-15
3.60492e-15
3.0534e-15
3.05848e-15
3.09805e-15
3.33081e-15
3.20249e-15
3.32228e-15
3.29131e-15
3.15382e-15
3.10855e-15
2.90914e-15
2.66717e-15
2.6418e-15
2.67018e-15
2.96963e-15
2.88029e-15
2.58876e-15
2.61971e-15
2.86437e-15
2.5841e-15
2.82074e-15
2.76255e-15
2.81128e-15
2.5189e-15
2.45662e-15
2.77391e-15
2.74074e-15
2.74074e-15
0.04
0.022801
0.023422
0.0210022
0.0138671
0.0135545
0.0167199
0.0172584
0.0155849
0.0150948
0.0153699
0.0153541
0.0152386
0.0154206
0.0155034
0.0154678
0.0154995
0.0156233
0.0156352
0.0156182
0.0156446
0.0156585
0.0156304
0.0155524
0.0155234
0.0153862
0.0152981
0.0151195
0.0150642
0.0148987
0.0148916
0.0148109
0.0148873
0.0148807
0.0150135
0.0150801
0.0152392
0.0153393
0.0155064
0.0156346
0.0158026
0.0159476
0.0161144
0.0162562
0.0163942
0.0165121
0.0166292
0.0167434
0.0168666
0.0169915
0.0171093
0.0172062
0.0172794
0.0173362
0.0173934
0.0174653
0.0175576
0.017661
0.017755
0.0178197
0.0178493
0.0178534
0.0178559
0.0178875
0.0179713
0.0181082
0.0182791
0.0184529
0.0185919
0.018665
0.0186637
0.0185971
0.0184834
0.0183491
0.018224
0.0181248
0.0180584
0.0180298
0.0180387
0.018075
0.018131
0.0182044
0.0182899
0.0183791
0.0184708
0.0185665
0.0186626
0.0187548
0.018846
0.0189367
0.0190229
0.0191034
0.0191814
0.0192547
0.0193216
0.019383
0.0194397
0.0194901
0.0195346
0.0195736
0.0196069
0.0196341
0.0196563
0.0196726
0.0196834
0.0196896
0.0196907
0.0196863
0.0196788
0.0196668
0.0196498
0.0196304
0.0196088
0.0195822
0.0195533
0.0195243
0.0194927
0.0194574
0.0194231
0.0193896
0.0193529
0.0193156
0.0192818
0.0192471
0.0192098
0.0191744
0.0191399
0.0191006
0.0190584
0.0190158
0.0189692
0.0189172
0.0188647
0.0188132
0.0187606
0.0187088
0.0186612
0.0186146
0.0185649
0.0185117
0.0184531
0.0183842
0.0183042
0.0182165
0.0181238
0.0180293
0.01794
0.0178632
0.0178023
0.0177584
0.0177333
0.0177259
0.017732
0.017749
0.0177768
0.0178146
0.0178615
0.0179186
0.0179872
0.0180657
0.0181515
0.0182435
0.0183402
0.0184393
0.0185419
0.0186514
0.0187706
0.0189025
0.0190511
0.0192176
0.0194003
0.0195951
0.0197956
0.0199949
0.0201858
0.0203623
0.0205211
0.0206618
0.0207853
0.0208944
0.0209927
0.0210828
0.0211664
0.0212442
0.0213158
0.0213797
0.0214341
0.021478
0.0215109
0.0215336
0.0215482
0.0215581
0.0215661
0.0215748
0.0215865
0.0216034
0.0216272
0.0216591
0.0216991
0.0217457
0.0217968
0.0218512
0.0219093
0.0219718
0.0220386
0.0221106
0.0221885
0.0222714
0.0223575
0.0224465
0.0225396
0.0226357
0.0227302
0.0228203
0.0229069
0.0229911
0.023071
0.0231474
0.0232266
0.0233111
0.0233916
0.0234567
0.0235121
0.0235773
0.0236604
0.0237435
0.0238038
0.0238452
0.023895
0.0239677
0.0240417
0.024084
0.0240921
0.0240995
0.0241353
0.0241912
0.0242388
0.0242736
0.0243195
0.0243807
0.0244105
0.0243537
0.024231
0.0241665
0.0242972
0.0246246
0.0249501
0.0249887
0.0245915
0.0238746
0.0231179
0.0225098
0.0219561
0.021139
0.0198121
0.0181177
0.0166557
0.0162199
0.0173701
0.0199932
0.0229847
0.0244837
0.0230164
0.0187258
0.0132482
0.00833185
0.00479581
0.0025946
0.00134497
0.00067598
0.000331555
0.000159203
7.49317e-05
3.45757e-05
1.56327e-05
6.9181e-06
2.99099e-06
1.25912e-06
5.13055e-07
1.99928e-07
7.24981e-08
2.27535e-08
4.61664e-09
2.04878e-09
3.1645e-09
2.92931e-09
2.23722e-09
1.73795e-09
1.24199e-09
8.58805e-10
6.48748e-10
3.98119e-10
2.77715e-10
1.90122e-10
1.49669e-10
1.29501e-10
2.81898e-11
5.43348e-11
5.24702e-11
1.97921e-11
2.87205e-11
1.57907e-11
1.13919e-11
2.36352e-12
7.90661e-12
5.57209e-12
9.29647e-12
4.33337e-12
7.49969e-12
9.98795e-12
4.78772e-12
5.48976e-12
9.25399e-12
5.09966e-12
5.08276e-12
5.33936e-12
4.85431e-12
3.26454e-12
3.21127e-12
4.88233e-12
1.35502e-12
3.10031e-12
2.67253e-12
9.29134e-13
2.41533e-12
7.35959e-13
1.04841e-12
6.70945e-13
3.64669e-13
5.65827e-13
1.81438e-13
1.70378e-13
6.95366e-14
1.36215e-13
1.28728e-13
9.49033e-14
8.16742e-14
8.3077e-14
8.33409e-14
7.81559e-14
6.65369e-14
5.47598e-14
4.15507e-14
3.32538e-14
2.63297e-14
2.61473e-14
2.41386e-14
2.44028e-14
2.17122e-14
1.96487e-14
1.75743e-14
1.71822e-14
1.61737e-14
1.56789e-14
1.43543e-14
1.22296e-14
1.0371e-14
8.08177e-15
6.81556e-15
6.20474e-15
5.89826e-15
5.50884e-15
5.30145e-15
5.52371e-15
5.15724e-15
5.61032e-15
5.46913e-15
5.72232e-15
5.09258e-15
5.31902e-15
5.00824e-15
5.03201e-15
5.07107e-15
4.82605e-15
4.52888e-15
4.34397e-15
4.50352e-15
4.38055e-15
4.40534e-15
4.54437e-15
4.37542e-15
4.16944e-15
3.74059e-15
3.72774e-15
3.59613e-15
3.66878e-15
3.57983e-15
3.44631e-15
3.37988e-15
3.11096e-15
3.63417e-15
3.18951e-15
3.48357e-15
3.5319e-15
3.5596e-15
3.28895e-15
2.90896e-15
3.12515e-15
3.04633e-15
3.04633e-15
0.04
0.0238507
0.0213967
0.0183426
0.0189746
0.0210865
0.0197367
0.0180768
0.0183932
0.019063
0.0186082
0.0182701
0.0184986
0.0187498
0.0187674
0.0189049
0.0190884
0.0191745
0.0192
0.0192825
0.0193406
0.0193251
0.019325
0.0193019
0.0192979
0.0191916
0.0191933
0.0190885
0.0191241
0.0190343
0.0191591
0.0191404
0.0193255
0.0193658
0.0195926
0.0196694
0.0198902
0.0199951
0.0202091
0.0203356
0.0205394
0.0206873
0.0208763
0.0210204
0.0211813
0.021312
0.0214499
0.0215771
0.021714
0.0218463
0.0219755
0.0220882
0.0221852
0.022269
0.0223514
0.0224413
0.0225438
0.0226521
0.0227511
0.0228278
0.0228792
0.0229113
0.0229425
0.0229987
0.0230962
0.0232351
0.0234034
0.0235755
0.023717
0.0238034
0.023827
0.0237895
0.023706
0.0236033
0.0235051
0.023425
0.0233755
0.0233632
0.0233839
0.0234307
0.0235016
0.0235904
0.0236885
0.0237922
0.0239019
0.0240131
0.024122
0.0242289
0.0243356
0.0244378
0.024534
0.0246259
0.0247146
0.0247961
0.0248707
0.0249405
0.025005
0.0250616
0.025112
0.0251567
0.0251942
0.0252236
0.0252473
0.0252643
0.0252726
0.0252737
0.0252702
0.0252582
0.0252383
0.0252141
0.0251845
0.0251465
0.0251046
0.0250603
0.0250101
0.024955
0.0249008
0.0248445
0.0247833
0.0247225
0.0246632
0.0246001
0.0245352
0.0244724
0.0244083
0.0243407
0.0242742
0.024209
0.0241416
0.0240735
0.024008
0.0239428
0.0238763
0.0238107
0.023746
0.0236785
0.0236071
0.0235326
0.0234532
0.0233665
0.0232743
0.0231783
0.0230784
0.0229755
0.0228731
0.0227734
0.0226784
0.0225915
0.022517
0.0224571
0.0224122
0.0223824
0.0223668
0.022362
0.0223645
0.0223732
0.0223878
0.0224077
0.0224338
0.0224687
0.0225137
0.0225688
0.022635
0.0227134
0.0228035
0.0229055
0.0230209
0.0231499
0.0232919
0.0234457
0.0236089
0.0237772
0.0239448
0.0241044
0.02425
0.0243765
0.0244802
0.024561
0.0246215
0.0246661
0.0247003
0.0247296
0.0247579
0.0247875
0.024819
0.0248515
0.0248828
0.0249101
0.0249308
0.0249433
0.0249466
0.0249419
0.0249311
0.0249161
0.0248991
0.0248822
0.0248668
0.0248541
0.024846
0.024843
0.024844
0.0248479
0.0248545
0.024864
0.0248767
0.0248936
0.0249162
0.0249439
0.0249746
0.0250068
0.0250407
0.0250751
0.0251072
0.0251355
0.0251616
0.0251852
0.0252025
0.0252122
0.0252207
0.0252337
0.0252466
0.0252484
0.0252388
0.0252311
0.0252348
0.0252399
0.0252298
0.0252052
0.0251846
0.025176
0.0251611
0.0251184
0.0250541
0.0249976
0.0249652
0.0249399
0.0248959
0.0248352
0.024787
0.0247644
0.0247327
0.0246384
0.0244834
0.0243595
0.0243822
0.0245655
0.0247548
0.0247043
0.024271
0.023553
0.0228159
0.0222421
0.0217209
0.0209117
0.0195739
0.0178778
0.0164165
0.0159277
0.0169295
0.0193537
0.0222223
0.023782
0.0225414
0.0185124
0.0132137
0.00837209
0.00484771
0.00263559
0.00137233
0.000692878
0.000341593
0.000165047
7.83023e-05
3.65147e-05
1.6751e-05
7.56688e-06
3.37105e-06
1.48467e-06
6.48561e-07
2.82391e-07
1.23434e-07
5.44427e-08
2.43935e-08
1.1261e-08
5.2971e-09
2.45061e-09
1.19054e-09
6.12e-10
2.64333e-10
1.46779e-10
7.7169e-11
3.72573e-11
5.15376e-12
3.01242e-11
1.87848e-11
1.84523e-11
6.38526e-11
1.66851e-11
2.47138e-11
1.8293e-11
1.99655e-11
1.02831e-11
7.71943e-12
9.31939e-12
1.5438e-12
7.74698e-12
8.33584e-12
3.74607e-12
8.76326e-12
9.25623e-12
6.90915e-12
3.7573e-12
9.89565e-12
8.28526e-12
2.62584e-12
8.0152e-12
4.94491e-12
3.77068e-12
4.57154e-12
2.83369e-12
3.22712e-12
1.76195e-12
2.73878e-12
1.60338e-12
1.50823e-12
1.39332e-12
4.92279e-13
9.10355e-13
3.01311e-13
3.96199e-13
2.22997e-13
1.25623e-13
1.26934e-13
5.24973e-14
6.49372e-14
2.16061e-14
3.15099e-14
4.43644e-14
4.50574e-14
4.40766e-14
3.75637e-14
3.02587e-14
1.9765e-14
1.46075e-14
1.13969e-14
1.38615e-14
1.4267e-14
1.49672e-14
1.43847e-14
1.29148e-14
1.28172e-14
1.34819e-14
1.32805e-14
1.39354e-14
1.26221e-14
1.07468e-14
8.35641e-15
6.88509e-15
5.86113e-15
5.91677e-15
5.46317e-15
5.22637e-15
5.28563e-15
5.49122e-15
5.29962e-15
5.27115e-15
5.25538e-15
5.18946e-15
4.77007e-15
5.05385e-15
4.92847e-15
4.92671e-15
4.94885e-15
4.78199e-15
4.71624e-15
4.29773e-15
4.40728e-15
4.25007e-15
4.14259e-15
4.4587e-15
4.46177e-15
4.3735e-15
3.67899e-15
3.81369e-15
3.72946e-15
3.53333e-15
3.70647e-15
3.81059e-15
3.45025e-15
3.32782e-15
3.22673e-15
3.36212e-15
3.2165e-15
3.40413e-15
3.5668e-15
3.06232e-15
3.08106e-15
3.11209e-15
3.05986e-15
3.05986e-15
0.04
0.0255208
0.0266815
0.0262519
0.025434
0.0226107
0.0207398
0.0218077
0.0222814
0.0211421
0.0203696
0.020843
0.0210232
0.0208084
0.0208175
0.0211295
0.021244
0.0212678
0.0213814
0.0214948
0.0214979
0.0214855
0.0215341
0.0215174
0.0215059
0.0214554
0.021518
0.021457
0.0215576
0.0215456
0.0217519
0.0217736
0.0220395
0.0221085
0.0223884
0.0224577
0.0227228
0.0228141
0.0230561
0.0231682
0.0233955
0.0235254
0.0237204
0.0238505
0.0240181
0.0241413
0.0242833
0.0244035
0.0245334
0.0246517
0.0247738
0.0248851
0.0249916
0.0250897
0.0251843
0.025279
0.025378
0.0254758
0.0255658
0.0256437
0.0257062
0.0257559
0.0258064
0.0258737
0.0259666
0.0260884
0.0262327
0.0263773
0.0264972
0.0265746
0.0265973
0.0265639
0.0264901
0.0263962
0.0262993
0.0262182
0.0261678
0.0261499
0.0261623
0.0262052
0.0262741
0.0263584
0.0264536
0.0265588
0.026669
0.0267776
0.0268857
0.0269945
0.0270996
0.0271976
0.0272931
0.0273853
0.0274701
0.0275483
0.027623
0.0276916
0.0277532
0.0278084
0.0278576
0.0278992
0.0279339
0.0279606
0.0279789
0.0279891
0.0279921
0.0279856
0.0279708
0.0279487
0.0279181
0.0278792
0.0278346
0.0277827
0.0277228
0.0276587
0.0275917
0.027518
0.0274405
0.0273636
0.0272836
0.0271987
0.0271146
0.0270304
0.0269408
0.0268489
0.0267588
0.0266658
0.0265697
0.0264762
0.0263852
0.0262941
0.0262057
0.0261223
0.0260408
0.0259578
0.0258733
0.0257852
0.0256885
0.0255813
0.025466
0.0253444
0.0252176
0.0250901
0.0249668
0.0248486
0.0247342
0.0246242
0.0245192
0.0244182
0.0243223
0.0242362
0.0241629
0.0241023
0.0240548
0.02402
0.0239938
0.0239718
0.0239531
0.023938
0.023927
0.0239229
0.0239311
0.0239548
0.0239956
0.024056
0.0241368
0.0242355
0.0243497
0.0244774
0.0246154
0.0247594
0.0249051
0.0250482
0.025184
0.0253062
0.0254084
0.0254866
0.0255385
0.0255637
0.0255658
0.0255508
0.0255258
0.0254988
0.0254763
0.0254626
0.0254596
0.0254667
0.0254818
0.0255012
0.0255203
0.0255351
0.0255421
0.0255397
0.0255279
0.0255076
0.0254803
0.0254482
0.0254127
0.0253754
0.0253391
0.0253063
0.0252773
0.0252513
0.0252282
0.0252088
0.0251938
0.0251837
0.0251794
0.0251809
0.0251862
0.0251935
0.0252028
0.0252135
0.025223
0.0252296
0.0252343
0.025237
0.0252341
0.0252241
0.0252125
0.0252062
0.0252028
0.0251912
0.0251675
0.0251422
0.0251266
0.0251176
0.0251025
0.0250777
0.0250508
0.025023
0.0249824
0.0249236
0.0248641
0.0248291
0.0248152
0.0247854
0.024711
0.0246121
0.0245449
0.0245398
0.0245583
0.0245236
0.0244065
0.0242752
0.0242461
0.0243631
0.0245087
0.0244539
0.0240434
0.0233553
0.0226555
0.022148
0.0217349
0.0210543
0.0198151
0.0181453
0.0166302
0.0160264
0.0168891
0.0192155
0.0220975
0.0237875
0.0227097
0.0187749
0.0134703
0.00856345
0.0049669
0.00270135
0.00140563
0.000708594
0.000348468
0.000167746
7.91541e-05
3.66224e-05
1.66076e-05
7.37442e-06
3.20102e-06
1.35461e-06
5.55937e-07
2.19001e-07
8.10724e-08
2.67734e-08
6.83195e-09
2.36915e-09
3.00328e-09
2.82808e-09
2.39864e-09
1.71535e-09
1.28155e-09
9.53298e-10
5.48172e-10
4.13077e-10
3.32335e-10
2.42534e-10
1.41856e-10
5.87601e-11
8.48347e-11
5.55093e-11
1.03433e-11
4.92841e-11
4.14204e-12
1.47315e-11
2.092e-11
1.0463e-11
3.04662e-12
6.72128e-12
3.71335e-12
3.21991e-12
5.64278e-12
6.19199e-12
1.29389e-12
7.79322e-12
7.52733e-12
1.52491e-12
6.55726e-12
3.86426e-12
3.13625e-12
2.34586e-12
3.16922e-12
2.86287e-12
1.06108e-12
3.25487e-12
1.24438e-12
1.91215e-12
1.8258e-12
5.9061e-13
1.20826e-12
2.86239e-13
5.78327e-13
3.67476e-13
1.93553e-13
1.85286e-13
2.06945e-14
8.45015e-14
6.09513e-14
4.08207e-14
1.18688e-14
3.82979e-15
1.16197e-14
1.10987e-14
1.15013e-14
1.02181e-14
5.86753e-15
7.50499e-15
7.42171e-15
6.21009e-15
7.0148e-15
6.83058e-15
7.75099e-15
7.17544e-15
7.68546e-15
8.49148e-15
9.45667e-15
1.01509e-14
9.81231e-15
8.26998e-15
6.2951e-15
6.09444e-15
6.0699e-15
6.60823e-15
6.62232e-15
5.97948e-15
6.20083e-15
5.96881e-15
6.25429e-15
5.90861e-15
5.56725e-15
4.9498e-15
4.86268e-15
4.89288e-15
4.80932e-15
4.8089e-15
4.73527e-15
4.61803e-15
4.59529e-15
4.30377e-15
4.08531e-15
4.45829e-15
4.30461e-15
4.0362e-15
4.23108e-15
4.26599e-15
3.9088e-15
3.97898e-15
3.72224e-15
3.75291e-15
3.63768e-15
3.6408e-15
3.33102e-15
3.25241e-15
3.0779e-15
3.12699e-15
3.49477e-15
3.50415e-15
3.36568e-15
2.95889e-15
2.93912e-15
3.14684e-15
3.04675e-15
3.04675e-15
0.04
0.0260595
0.0269022
0.0253657
0.0245349
0.0243391
0.0250559
0.0243086
0.0226934
0.0226185
0.0232507
0.0229718
0.022258
0.0223206
0.0226058
0.0225741
0.0224866
0.0226399
0.0227503
0.0227198
0.0227173
0.0227624
0.0227566
0.022696
0.0227187
0.0227061
0.0227511
0.0227213
0.0228793
0.0228983
0.0231257
0.0231784
0.0234868
0.0235459
0.0238456
0.0239055
0.0241881
0.0242514
0.0245114
0.0246079
0.0248407
0.0249416
0.0251331
0.0252372
0.0253941
0.0255005
0.0256393
0.0257429
0.0258568
0.0259525
0.0260558
0.0261548
0.0262622
0.0263669
0.0264698
0.0265668
0.0266571
0.0267387
0.0268153
0.0268878
0.026955
0.0270204
0.027089
0.0271635
0.0272492
0.0273512
0.0274638
0.0275735
0.027667
0.0277271
0.02774
0.0277067
0.0276374
0.0275443
0.0274476
0.0273672
0.0273119
0.0272855
0.0272931
0.0273308
0.0273894
0.0274649
0.0275565
0.0276559
0.0277571
0.0278607
0.0279668
0.0280689
0.0281658
0.0282599
0.0283515
0.0284362
0.0285148
0.0285902
0.0286615
0.0287247
0.0287821
0.0288344
0.0288798
0.0289155
0.0289442
0.0289656
0.0289773
0.0289787
0.0289736
0.0289592
0.0289337
0.0289011
0.0288628
0.0288129
0.0287546
0.0286936
0.0286254
0.0285469
0.0284663
0.0283843
0.0282941
0.0281994
0.0281076
0.0280119
0.0279096
0.0278082
0.0277069
0.0275991
0.0274888
0.0273806
0.0272713
0.0271603
0.027054
0.0269533
0.026855
0.0267592
0.0266676
0.0265753
0.0264769
0.0263711
0.0262567
0.0261309
0.0259945
0.0258529
0.0257113
0.0255731
0.0254422
0.0253214
0.0252092
0.0251013
0.0249947
0.0248889
0.0247838
0.0246807
0.0245853
0.0245032
0.0244346
0.0243787
0.0243351
0.0243001
0.0242686
0.0242401
0.0242173
0.0242023
0.0241988
0.0242133
0.02425
0.0243093
0.0243915
0.0244954
0.024616
0.0247474
0.0248844
0.0250221
0.0251557
0.0252803
0.0253914
0.0254858
0.0255586
0.0256053
0.0256244
0.0256166
0.0255848
0.0255352
0.0254762
0.0254161
0.0253632
0.0253239
0.025302
0.0252982
0.0253108
0.0253362
0.0253694
0.0254038
0.0254341
0.0254562
0.025468
0.0254685
0.0254582
0.0254384
0.0254099
0.0253741
0.0253347
0.0252964
0.0252614
0.0252294
0.0252
0.0251741
0.0251526
0.0251367
0.0251277
0.0251264
0.0251305
0.0251368
0.0251435
0.0251502
0.0251565
0.0251625
0.0251697
0.0251771
0.0251788
0.0251696
0.025154
0.0251428
0.0251407
0.0251397
0.0251294
0.0251106
0.0250917
0.0250768
0.0250629
0.0250488
0.0250353
0.0250147
0.0249733
0.0249103
0.024851
0.0248242
0.0248238
0.0248059
0.0247343
0.0246249
0.0245385
0.0245214
0.024552
0.024558
0.0244923
0.0243902
0.0243394
0.0243783
0.0244144
0.024264
0.0238151
0.023165
0.022567
0.0221862
0.0218802
0.0212596
0.0200396
0.0183758
0.0168654
0.016241
0.0170215
0.0192034
0.0219409
0.0235712
0.0225435
0.0187108
0.013486
0.00861036
0.00501263
0.00273497
0.00142739
0.000721797
0.000356221
0.000172229
8.17348e-05
3.81115e-05
1.74731e-05
7.88355e-06
3.5046e-06
1.53801e-06
6.68511e-07
2.88977e-07
1.24826e-07
5.43874e-08
2.41192e-08
1.0771e-08
4.86287e-09
2.33169e-09
1.07885e-09
4.94433e-10
3.02922e-10
1.33363e-10
9.21552e-11
5.70683e-11
2.86755e-11
7.41309e-12
7.6626e-11
5.24601e-11
4.08589e-11
1.78978e-11
1.45864e-11
1.96112e-11
3.06028e-11
4.31516e-12
1.81137e-11
4.89058e-12
6.43463e-12
5.85957e-12
1.07969e-11
3.0831e-12
5.81413e-12
1.13184e-11
9.63703e-12
2.49712e-12
1.25862e-11
9.33925e-12
2.31317e-12
7.99246e-12
4.79661e-12
2.58257e-12
2.96214e-12
4.19625e-12
2.66964e-12
2.31755e-12
3.74667e-12
7.9848e-13
2.44954e-12
1.38738e-12
9.13274e-13
1.10967e-12
2.44317e-13
5.82437e-13
1.58327e-13
1.91243e-13
1.50507e-13
8.03077e-14
6.79075e-14
2.63793e-14
3.31038e-14
1.1565e-14
3.39025e-15
1.16891e-14
1.07052e-14
8.20242e-15
5.95801e-15
7.63398e-15
7.29492e-15
5.87387e-15
6.97784e-15
6.61169e-15
7.13103e-15
6.33094e-15
7.33814e-15
7.62247e-15
9.31322e-15
9.69575e-15
9.3577e-15
8.43702e-15
6.33966e-15
6.0937e-15
6.01963e-15
6.38323e-15
6.41479e-15
6.06606e-15
6.24623e-15
6.38908e-15
6.15162e-15
6.04807e-15
5.71719e-15
4.98772e-15
4.8223e-15
4.97684e-15
4.77743e-15
4.93632e-15
4.85716e-15
4.4919e-15
4.55596e-15
4.2486e-15
4.55083e-15
4.35615e-15
4.32991e-15
4.19167e-15
4.05052e-15
4.13576e-15
4.21974e-15
3.9867e-15
3.76784e-15
3.96965e-15
3.75626e-15
3.64057e-15
3.45649e-15
3.02433e-15
2.83333e-15
3.18861e-15
3.30985e-15
3.3984e-15
3.6535e-15
2.90602e-15
2.86818e-15
3.03772e-15
3.02887e-15
3.02887e-15
0.04
0.0238695
0.0240077
0.0252204
0.0258678
0.0255566
0.0250856
0.0243286
0.024576
0.0249274
0.0242762
0.0235777
0.0237123
0.0239067
0.0235605
0.0233162
0.023452
0.0235471
0.0234307
0.0233825
0.023433
0.023405
0.0233278
0.023299
0.0233237
0.0232753
0.0233173
0.0233301
0.0234895
0.0235054
0.0237533
0.0238188
0.0241213
0.0241654
0.0244767
0.0245175
0.0247971
0.0248445
0.0251148
0.0251902
0.0254201
0.0255031
0.0256892
0.0257723
0.0259256
0.0260245
0.026159
0.0262492
0.0263502
0.0264261
0.0265136
0.0266045
0.0267126
0.0268216
0.0269294
0.0270224
0.0270982
0.0271625
0.027226
0.0272928
0.0273676
0.0274512
0.027536
0.027617
0.0276984
0.0277819
0.0278656
0.027949
0.0280232
0.0280713
0.0280839
0.0280583
0.0279958
0.027909
0.0278187
0.027738
0.0276769
0.0276464
0.0276488
0.0276764
0.0277272
0.0277997
0.0278859
0.0279775
0.0280754
0.0281781
0.0282789
0.0283743
0.0284694
0.0285627
0.028649
0.0287294
0.0288091
0.0288838
0.0289507
0.0290122
0.0290693
0.0291176
0.0291581
0.029191
0.0292148
0.0292286
0.0292351
0.0292315
0.0292172
0.0291951
0.0291656
0.0291249
0.0290765
0.0290229
0.0289605
0.0288896
0.0288163
0.028737
0.0286492
0.0285591
0.0284679
0.0283689
0.0282663
0.0281651
0.0280597
0.0279488
0.027839
0.0277285
0.0276128
0.0274967
0.0273841
0.0272721
0.0271617
0.0270576
0.0269595
0.0268635
0.0267682
0.0266721
0.02657
0.0264565
0.0263312
0.0261956
0.0260515
0.0259027
0.0257573
0.0256219
0.0254983
0.0253862
0.0252847
0.0251884
0.0250896
0.0249847
0.0248752
0.0247635
0.0246539
0.0245547
0.0244721
0.0244063
0.0243553
0.0243175
0.0242888
0.0242651
0.0242473
0.0242394
0.0242449
0.0242682
0.0243145
0.0243855
0.0244785
0.02459
0.0247147
0.0248455
0.024975
0.0250977
0.0252107
0.0253116
0.0253973
0.0254661
0.0255165
0.0255452
0.0255494
0.0255289
0.0254851
0.0254223
0.0253481
0.0252717
0.025202
0.0251466
0.0251116
0.0250995
0.0251096
0.0251392
0.025184
0.0252373
0.0252919
0.0253422
0.0253834
0.025412
0.0254268
0.0254282
0.0254168
0.0253933
0.025361
0.0253252
0.0252896
0.0252552
0.0252229
0.0251944
0.0251708
0.0251522
0.0251397
0.0251344
0.0251355
0.0251398
0.0251455
0.0251518
0.0251577
0.0251625
0.0251677
0.025174
0.0251769
0.0251702
0.0251554
0.0251425
0.0251384
0.0251376
0.0251291
0.0251112
0.0250921
0.0250781
0.025068
0.0250572
0.0250412
0.0250123
0.0249622
0.0248975
0.0248459
0.0248328
0.0248429
0.0248215
0.0247261
0.0245815
0.0244725
0.0244673
0.0245442
0.0246039
0.0245634
0.0244378
0.0243219
0.0242782
0.0242388
0.024039
0.0235794
0.0229597
0.0224253
0.022132
0.0219369
0.0214467
0.0203428
0.0187248
0.0171552
0.016383
0.0169855
0.0190336
0.0217416
0.0234546
0.0225635
0.0188387
0.0136494
0.00875111
0.00510969
0.00279308
0.00145902
0.00073783
0.000363843
0.000175597
8.30713e-05
3.85394e-05
1.75293e-05
7.81134e-06
3.40593e-06
1.44977e-06
6.00065e-07
2.39731e-07
9.08957e-08
3.13973e-08
9.18238e-09
3.10637e-09
2.97602e-09
2.81974e-09
2.22286e-09
1.79344e-09
1.26637e-09
7.96524e-10
6.75399e-10
5.03513e-10
3.08297e-10
1.95839e-10
1.23237e-10
1.23737e-10
6.94927e-11
4.5251e-11
5.04681e-11
9.69638e-12
6.45056e-12
3.60739e-11
9.79084e-12
1.21469e-11
3.94077e-12
6.0607e-12
6.04552e-12
3.69024e-12
3.19282e-12
5.32746e-12
4.45581e-12
7.62109e-12
3.22486e-12
4.6158e-12
5.2603e-12
1.51398e-12
2.27115e-12
2.09826e-12
2.79701e-12
1.02215e-12
2.5498e-12
2.75922e-12
8.13886e-13
2.4504e-12
8.61802e-13
1.24454e-12
9.99076e-13
4.41242e-13
5.90605e-13
1.30478e-13
2.53345e-13
1.3733e-13
9.60749e-14
6.91197e-14
1.50203e-14
2.1903e-14
2.12598e-14
1.19737e-14
8.23584e-15
1.32648e-14
1.31633e-14
1.12435e-14
6.746e-15
7.49687e-15
7.045e-15
7.26118e-15
8.73605e-15
7.60371e-15
8.00937e-15
7.17427e-15
7.65567e-15
8.51353e-15
9.7097e-15
1.02663e-14
9.97123e-15
8.94267e-15
6.69447e-15
6.01384e-15
5.78247e-15
5.65933e-15
5.69798e-15
5.60227e-15
6.06519e-15
5.81828e-15
6.1516e-15
5.75343e-15
5.77533e-15
5.1728e-15
4.791e-15
4.47302e-15
4.56242e-15
4.91215e-15
5.0762e-15
4.50396e-15
4.48845e-15
4.35231e-15
4.61038e-15
4.36904e-15
4.38836e-15
3.98296e-15
4.04891e-15
3.88276e-15
3.98932e-15
4.1427e-15
3.80602e-15
3.70884e-15
3.60564e-15
3.55724e-15
3.5114e-15
2.89275e-15
3.04907e-15
3.37351e-15
3.74835e-15
3.70737e-15
3.83564e-15
3.1397e-15
3.19895e-15
2.98515e-15
2.92487e-15
2.92487e-15
0.04
0.0237788
0.0243559
0.0247965
0.0247243
0.0248154
0.0249553
0.0253165
0.02556
0.02489
0.0245299
0.0249055
0.0249033
0.0242693
0.0240006
0.0241959
0.0241378
0.0238491
0.023792
0.0238746
0.0237933
0.0236583
0.0236457
0.0236348
0.0235797
0.0235246
0.0236047
0.0236041
0.0237259
0.0237557
0.0240084
0.0240399
0.0243187
0.0243561
0.0246532
0.0246638
0.0249433
0.024988
0.0252555
0.025318
0.0255527
0.0256274
0.0258068
0.0258856
0.026049
0.0261529
0.026295
0.0263908
0.0264903
0.0265555
0.0266339
0.0267182
0.026824
0.026936
0.0270447
0.0271295
0.0271911
0.0272376
0.0272828
0.0273415
0.0274235
0.0275214
0.0276214
0.0277157
0.0277994
0.0278708
0.0279385
0.0280073
0.0280696
0.0281159
0.0281374
0.0281231
0.0280727
0.0279985
0.0279137
0.0278318
0.0277707
0.0277385
0.0277333
0.0277555
0.0278063
0.0278755
0.0279548
0.0280451
0.0281444
0.0282425
0.0283388
0.0284367
0.0285339
0.0286245
0.0287113
0.0287969
0.0288789
0.0289523
0.0290204
0.0290844
0.0291408
0.0291863
0.029224
0.0292544
0.0292749
0.0292833
0.0292837
0.0292759
0.0292569
0.029228
0.029194
0.0291503
0.0290957
0.0290376
0.0289756
0.0289015
0.0288219
0.0287435
0.0286574
0.0285615
0.0284672
0.0283713
0.0282655
0.0281575
0.0280526
0.027942
0.0278261
0.0277136
0.0276022
0.0274872
0.0273743
0.0272674
0.0271631
0.0270601
0.0269623
0.0268679
0.026771
0.0266688
0.0265612
0.0264446
0.0263162
0.0261782
0.0260358
0.0258929
0.0257535
0.0256233
0.0255072
0.0254039
0.0253085
0.0252171
0.0251249
0.0250248
0.0249144
0.0247994
0.0246858
0.0245785
0.0244858
0.0244146
0.024363
0.0243271
0.0243057
0.0242961
0.0242946
0.0243031
0.0243267
0.0243678
0.0244278
0.0245088
0.0246089
0.0247215
0.0248394
0.0249563
0.025066
0.0251629
0.0252443
0.0253113
0.0253657
0.0254069
0.0254351
0.0254499
0.0254483
0.025427
0.0253857
0.0253258
0.0252516
0.0251709
0.0250929
0.0250261
0.0249777
0.0249525
0.0249523
0.0249763
0.0250213
0.025082
0.025151
0.0252213
0.0252868
0.0253416
0.0253821
0.0254076
0.0254178
0.0254121
0.0253924
0.0253638
0.0253307
0.0252959
0.0252615
0.0252307
0.0252045
0.0251826
0.0251653
0.0251546
0.0251503
0.0251502
0.0251526
0.0251569
0.0251614
0.0251641
0.0251662
0.0251702
0.025173
0.0251675
0.0251523
0.0251365
0.0251302
0.0251306
0.0251258
0.0251099
0.0250895
0.025074
0.0250652
0.025057
0.0250407
0.0250085
0.024956
0.0248931
0.024847
0.0248392
0.0248516
0.0248274
0.0247224
0.0245628
0.0244431
0.0244451
0.0245512
0.0246479
0.0246269
0.0244881
0.024328
0.0242186
0.0241016
0.0238272
0.0233211
0.022711
0.022253
0.0220873
0.0220402
0.0216837
0.0206692
0.0190763
0.0174656
0.016603
0.0170889
0.0190152
0.0216241
0.0232965
0.0224367
0.0187818
0.0136515
0.00877928
0.00513972
0.00281579
0.00147382
0.000746792
0.000369073
0.000178603
8.47955e-05
3.95366e-05
1.8115e-05
8.16136e-06
3.61918e-06
1.58231e-06
6.83459e-07
2.92805e-07
1.25245e-07
5.3697e-08
2.30512e-08
1.01257e-08
4.60343e-09
2.04416e-09
1.00448e-09
5.22398e-10
2.83004e-10
2.00091e-10
1.19865e-10
3.82006e-11
1.1476e-10
1.24931e-10
1.16766e-11
1.07764e-11
4.44517e-11
1.03335e-11
1.14916e-11
4.35397e-11
2.70661e-11
1.56951e-11
2.06192e-11
6.27141e-12
8.13776e-12
6.53312e-12
6.98076e-12
5.86992e-12
8.11297e-12
1.12379e-11
1.01667e-11
5.83178e-12
1.27018e-11
7.06274e-12
3.50766e-12
6.48426e-12
4.0474e-12
1.33925e-12
2.70492e-12
5.00838e-12
1.8856e-12
3.53439e-12
3.78746e-12
6.89179e-13
2.91304e-12
9.52203e-13
1.33112e-12
1.02785e-12
3.2052e-13
5.94281e-13
1.25624e-13
2.51957e-13
9.7107e-14
5.41449e-14
6.56319e-14
2.44423e-14
1.57063e-14
8.6468e-15
1.32346e-14
1.05787e-14
1.18781e-14
1.30591e-14
8.87247e-15
9.06387e-15
8.98416e-15
8.87185e-15
9.56226e-15
8.4049e-15
7.72989e-15
7.57585e-15