# vtk DataFile Version 3.0
LBM output step 1290
ASCII
DATASET STRUCTURED_POINTS
DIMENSIONS 400 100 1
ORIGIN 0 0 0
SPACING 1 1 1
POINT_DATA 40000
SCALARS velocity_magnitude double 1
LOOKUP_TABLE default
0
0
0
0
0
0
0
0
0
0
0
0
0
0
0
0
0
0
0
0
0
0
0
0
0
0
0
0
0
0
0
0
0
0
0
0
0
0
0
0
0
0
0
0
0
0
0
0
0
0
0
0
0
0
0
0
0
0
0
0
0
0
0
0
0
0
0
0
0
0
0
0
0
0
0
0
0
0
0
0
0
0
0
0
0
0
0
0
0
0
0
0
0
0
0
0
0
0
0
0
0
0
0
0
0
0
0
0
0
0
0
0
0
0
0
0
0
0
0
0
0
0
0
0
0
0
0
0
0
0
0
0
0
0
0
0
0
0
0
0
0
0
0
0
0
0
0
0
0
0
0
0
0
0
0
0
0
0
0
0
0
0
0
0
0
0
0
0
0
0
0
0
0
0
0
0
0
0
0
0
0
0
0
0
0
0
0
0
0
0
0
0
0
0
0
0
0
0
0
0
0
0
0
0
0
0
0
0
0
0
0
0
0
0
0
0
0
0
0
0
0
0
0
0
0
0
0
0
0
0
0
0
0
0
0
0
0
0
0
0
0
0
0
0
0
0
0
0
0
0
0
0
0
0
0
0
0
0
0
0
0
0
0
0
0
0
0
0
0
0
0
0
0
0
0
0
0
0
0
0
0
0
0
0
0
0
0
0
0
0
0
0
0
0
0
0
0
0
0
0
0
0
0
0
0
0
0
0
0
0
0
0
0
0
0
0
0
0
0
0
0
0
0
0
0
0
0
0
0
0
0
0
0
0
0
0
0
0
0
0
0
0
0
0
0
0
0
0
0
0
0
0
0
0
0
0
0
0
0
0
0
0
0
0
0
0
0
0
0
0
0
0
0
0
0
0
0
0
0
0
0
0
0
0
0
0
0
0
0
0
0
0
0
0
0
0
0
0
0
0
0.04
0.0135682
0.00797263
0.0124891
0.0149714
0.0145912
0.0115651
0.0109043
0.0109378
0.0109882
0.0106675
0.0106851
0.0104423
0.0102834
0.0101749
0.0101781
0.0100201
0.00991254
0.00981881
0.00974678
0.00961343
0.00952629
0.00943144
0.00933579
0.00922264
0.00914206
0.00905156
0.00896466
0.00887923
0.00881343
0.00874043
0.0086744
0.00861198
0.00855695
0.00849501
0.00843741
0.00837921
0.00832126
0.00825826
0.00819809
0.00813643
0.00807481
0.00801205
0.00795257
0.00789356
0.00783685
0.00778292
0.00773446
0.00769143
0.00765591
0.0076316
0.00762124
0.00762897
0.00765743
0.00771487
0.00780212
0.00792689
0.00808773
0.00829351
0.00853527
0.00881932
0.00913084
0.00947412
0.00982419
0.0101849
0.0105255
0.0108501
0.011123
0.0113552
0.0115123
0.0116161
0.0116399
0.0116239
0.0115505
0.0114726
0.0113748
0.0113097
0.0112474
0.0112284
0.0112091
0.0112227
0.011222
0.0112453
0.0112514
0.0112797
0.011288
0.0113119
0.0113069
0.0113038
0.0112647
0.0112262
0.0111612
0.011106
0.0110377
0.0109869
0.0109287
0.0108825
0.0108242
0.0107696
0.010698
0.0106222
0.0105297
0.0104351
0.0103305
0.0102278
0.0101219
0.0100209
0.00991998
0.00982351
0.00972888
0.00964164
0.00955966
0.00948514
0.00941764
0.00935667
0.00929712
0.00923791
0.00917632
0.00910957
0.00903705
0.00896021
0.00887865
0.00879375
0.00870802
0.00862343
0.00854172
0.00846526
0.00839554
0.00833295
0.00827651
0.00822537
0.00817878
0.00813533
0.00809393
0.00805534
0.0080199
0.00798735
0.0079583
0.00793374
0.00791321
0.00789609
0.00788198
0.00787022
0.00785959
0.00784916
0.00783806
0.00782553
0.00781099
0.00779385
0.00777341
0.00774996
0.0077246
0.00769799
0.007671
0.00764591
0.00762483
0.00760837
0.00759718
0.00759277
0.00759541
0.00760393
0.00761765
0.00763635
0.00765868
0.00768264
0.00770696
0.00773087
0.00775312
0.00777231
0.00778796
0.00780025
0.00780896
0.00781386
0.00781564
0.00781532
0.00781328
0.00780995
0.00780626
0.00780271
0.00779899
0.00779479
0.00778983
0.00778334
0.00777437
0.00776239
0.0077472
0.00772876
0.00770738
0.0076839
0.00765937
0.00763484
0.00761139
0.00759003
0.0075715
0.00755618
0.00754417
0.00753534
0.00752935
0.0075257
0.00752391
0.00752352
0.00752417
0.00752555
0.00752751
0.00753001
0.00753312
0.00753701
0.00754196
0.00754827
0.00755622
0.007566
0.00757763
0.007591
0.00760581
0.0076217
0.00763823
0.007655
0.00767166
0.00768792
0.00770358
0.00771841
0.0077322
0.00774466
0.00775544
0.00776411
0.0077702
0.00777326
0.00777291
0.00776889
0.00776113
0.00774979
0.00773525
0.00771808
0.00769904
0.00767897
0.00765873
0.00763911
0.0076208
0.0076043
0.00758987
0.00757756
0.00756711
0.007558
0.00754948
0.00754065
0.00753061
0.00751862
0.00750428
0.00748766
0.00746937
0.0074505
0.00743248
0.00741684
0.00740498
0.00739795
0.00739628
0.00739999
0.00740866
0.00742159
0.00743803
0.00745737
0.00747916
0.00750317
0.00752923
0.00755703
0.00758599
0.00761516
0.0076433
0.00766902
0.00769106
0.00770848
0.00772078
0.0077279
0.00773011
0.00772787
0.00772168
0.00771208
0.00769969
0.00768525
0.00766964
0.00765389
0.00763899
0.0076258
0.0076149
0.00760655
0.00760065
0.00759681
0.00759441
0.00759268
0.00759077
0.00758785
0.00758326
0.00757654
0.00756755
0.00755637
0.00754329
0.00752872
0.00751309
0.00749686
0.00748054
0.00746469
0.00744991
0.00743681
0.00742595
0.00741779
0.00741264
0.00741065
0.00741186
0.00741625
0.00742373
0.00743421
0.00744763
0.00746392
0.00748301
0.00750478
0.00752897
0.00755522
0.00758298
0.00761157
0.00764022
0.00766808
0.00769433
0.00771817
0.00773896
0.00775628
0.00776994
0.00778008
0.00778712
0.00779165
0.00779437
0.00779592
0.00779674
0.00779702
0.00779665
0.00779528
0.00779236
0.0077873
0.00777954
0.0077687
0.00775461
0.00773741
0.0077175
0.00769553
0.00767232
0.00764879
0.00762589
0.00760453
0.00758549
0.00756941
0.00755672
0.00754756
0.0075418
0.00753899
0.00753846
0.00753934
0.00754072
0.00754178
0.00754196
0.00754101
0.00753912
0.00753684
0.00753503
0.00753473
0.00753699
0.00754275
0.00755265
0.00756704
0.00758585
0.00760866
0.00763471
0.00766299
0.00769232
0.00772144
0.00774916
0.00777438
0.00779621
0.00781403
0.00782755
0.00783682
0.00784221
0.00784444
0.0078444
0.00784321
0.00784199
0.00784185
0.00784379
0.00784854
0.00785663
0.00786823
0.00788327
0.00790128
0.00792157
0.00794338
0.00796558
0.00798686
0.00800645
0.00802482
0.00803755
0.00804313
0.00804313
0.04
0.022696
0.0244069
0.021815
0.0147358
0.013905
0.0169024
0.0175416
0.0159115
0.0152734
0.0153704
0.0152065
0.0148661
0.0148175
0.0146622
0.0144011
0.0142256
0.0141693
0.0140024
0.0138209
0.0136965
0.0135924
0.0134346
0.0133041
0.0132008
0.013093
0.0129732
0.0128868
0.0128124
0.0127367
0.0126681
0.0126216
0.0125751
0.0125276
0.0124854
0.0124487
0.0124047
0.0123589
0.0123143
0.012269
0.012219
0.0121707
0.0121247
0.0120796
0.0120355
0.0119965
0.0119627
0.0119336
0.0119121
0.011901
0.0119034
0.01192
0.0119584
0.012021
0.012116
0.0122429
0.0124144
0.0126265
0.0128904
0.0131955
0.0135541
0.0139455
0.0143797
0.0148269
0.0152981
0.015752
0.0162027
0.0166026
0.0169728
0.0172628
0.017509
0.017665
0.0177876
0.0178375
0.0178901
0.0179045
0.0179593
0.0179982
0.0180923
0.0181656
0.0182852
0.0183707
0.018497
0.0185836
0.0187101
0.0187956
0.0189155
0.0189816
0.0190673
0.0190936
0.0191376
0.0191273
0.0191425
0.0191215
0.0191317
0.0191076
0.0191098
0.0190794
0.0190616
0.0190047
0.018955
0.0188701
0.0187878
0.0186791
0.0185782
0.0184592
0.018348
0.0182247
0.0181084
0.0179853
0.0178701
0.0177531
0.017646
0.0175407
0.0174425
0.017344
0.0172466
0.0171451
0.0170412
0.0169302
0.0168153
0.0166978
0.0165777
0.0164556
0.0163374
0.0162236
0.0161147
0.0160141
0.0159234
0.0158397
0.0157626
0.0156927
0.0156278
0.0155666
0.0155097
0.0154579
0.0154104
0.0153675
0.0153301
0.015298
0.0152704
0.0152464
0.0152259
0.0152075
0.0151896
0.0151716
0.0151531
0.0151326
0.0151091
0.0150833
0.0150549
0.0150234
0.0149907
0.014959
0.0149285
0.0149009
0.0148789
0.0148633
0.0148535
0.0148506
0.0148553
0.0148659
0.0148811
0.0149008
0.0149234
0.0149472
0.0149708
0.0149933
0.0150139
0.0150316
0.0150459
0.0150568
0.0150648
0.0150698
0.0150721
0.0150729
0.0150729
0.015072
0.0150708
0.0150697
0.0150682
0.0150656
0.0150613
0.0150549
0.0150454
0.0150326
0.0150165
0.0149976
0.0149765
0.014954
0.0149315
0.0149099
0.0148902
0.0148732
0.0148593
0.0148488
0.0148415
0.0148371
0.0148351
0.0148352
0.0148367
0.0148394
0.014843
0.0148473
0.0148522
0.0148578
0.0148643
0.014872
0.0148809
0.0148915
0.0149038
0.0149179
0.0149335
0.0149504
0.0149683
0.0149866
0.0150049
0.015023
0.0150405
0.0150572
0.0150728
0.015087
0.0150996
0.0151101
0.0151183
0.0151236
0.0151256
0.0151241
0.0151188
0.0151097
0.015097
0.0150812
0.0150628
0.0150426
0.0150214
0.0150002
0.0149798
0.0149608
0.0149438
0.0149291
0.0149167
0.0149066
0.0148981
0.0148905
0.014883
0.0148746
0.0148646
0.0148524
0.0148383
0.0148227
0.0148068
0.014792
0.0147797
0.0147716
0.0147685
0.0147712
0.0147795
0.0147931
0.0148111
0.0148326
0.014857
0.0148836
0.014912
0.014942
0.0149732
0.015005
0.0150364
0.0150662
0.0150931
0.0151159
0.0151337
0.0151461
0.0151532
0.0151554
0.0151532
0.0151472
0.015138
0.0151264
0.0151131
0.0150989
0.0150848
0.0150718
0.0150605
0.0150515
0.0150449
0.0150406
0.015038
0.0150365
0.0150353
0.0150335
0.0150305
0.0150255
0.0150182
0.0150084
0.0149964
0.0149825
0.0149672
0.014951
0.0149345
0.0149182
0.0149027
0.0148887
0.0148767
0.0148672
0.0148607
0.0148575
0.0148577
0.0148613
0.0148682
0.0148783
0.0148917
0.0149081
0.0149275
0.01495
0.0149753
0.0150033
0.0150335
0.0150654
0.0150983
0.0151313
0.0151636
0.0151942
0.0152222
0.015247
0.015268
0.015285
0.015298
0.0153075
0.0153139
0.015318
0.0153204
0.0153215
0.0153216
0.0153205
0.0153181
0.0153139
0.0153073
0.015298
0.0152855
0.0152699
0.0152514
0.0152305
0.0152078
0.0151844
0.0151611
0.015139
0.015119
0.015102
0.0150885
0.0150791
0.0150738
0.0150724
0.0150745
0.0150793
0.0150859
0.0150934
0.015101
0.0151079
0.0151139
0.0151191
0.0151241
0.0151296
0.0151367
0.0151462
0.0151592
0.0151761
0.0151973
0.0152227
0.0152518
0.0152838
0.0153177
0.0153523
0.0153862
0.0154183
0.0154474
0.0154728
0.0154937
0.01551
0.0155218
0.0155294
0.0155337
0.0155357
0.0155365
0.0155373
0.0155392
0.0155432
0.01555
0.0155602
0.0155739
0.015591
0.0156109
0.0156329
0.0156558
0.0156788
0.0157009
0.0157199
0.015734
0.0157434
0.0157485
0.0157485
0.04
0.0235725
0.0217329
0.0187584
0.0199409
0.0220347
0.0210914
0.0194328
0.0195943
0.0200882
0.0195461
0.0189437
0.0188129
0.0187067
0.0183667
0.0181507
0.0180111
0.0178063
0.0175676
0.0174296
0.0172808
0.0170962
0.0169276
0.0168088
0.01667
0.0165321
0.0164218
0.016335
0.0162415
0.0161671
0.0161151
0.0160724
0.0160293
0.0160006
0.0159778
0.0159522
0.0159235
0.015899
0.0158706
0.015838
0.0158048
0.015774
0.0157417
0.0157108
0.015684
0.015662
0.0156438
0.0156322
0.0156301
0.0156381
0.0156592
0.0156964
0.0157564
0.01584
0.0159556
0.0161051
0.0162986
0.0165324
0.0168173
0.0171447
0.017524
0.017936
0.0183902
0.0188579
0.0193481
0.0198218
0.0202921
0.0207123
0.0211038
0.0214161
0.0216869
0.0218692
0.0220227
0.022105
0.022197
0.022252
0.0223565
0.0224436
0.0225944
0.0227185
0.0228983
0.023034
0.0232198
0.0233543
0.0235432
0.0236763
0.0238585
0.0239707
0.0241211
0.0241906
0.0242956
0.0243266
0.0244047
0.0244213
0.0244906
0.024503
0.0245616
0.0245613
0.024595
0.0245654
0.0245613
0.0244996
0.0244583
0.0243691
0.0243039
0.0242018
0.0241192
0.0240083
0.0239152
0.0238
0.0237001
0.0235868
0.0234895
0.0233831
0.0232864
0.023183
0.0230836
0.0229716
0.0228595
0.022739
0.0226136
0.0224813
0.0223506
0.0222159
0.022083
0.0219552
0.0218341
0.0217187
0.0216131
0.0215159
0.0214251
0.0213406
0.0212627
0.0211892
0.0211203
0.0210569
0.0209993
0.020947
0.020901
0.0208612
0.0208271
0.020798
0.0207728
0.0207508
0.0207309
0.0207115
0.0206917
0.0206712
0.0206487
0.0206234
0.0205964
0.0205678
0.0205378
0.0205083
0.0204816
0.0204582
0.0204391
0.0204265
0.0204209
0.0204214
0.0204283
0.0204417
0.0204599
0.0204816
0.0205059
0.0205314
0.0205567
0.0205806
0.0206023
0.0206212
0.0206373
0.0206502
0.0206601
0.0206679
0.020674
0.0206785
0.0206824
0.0206863
0.02069
0.0206933
0.0206964
0.0206986
0.020699
0.0206971
0.0206925
0.0206848
0.0206741
0.0206607
0.0206453
0.0206289
0.0206123
0.0205965
0.0205825
0.0205708
0.020562
0.0205562
0.0205533
0.0205531
0.0205552
0.0205591
0.0205645
0.0205709
0.0205782
0.0205861
0.0205946
0.0206037
0.0206137
0.0206246
0.0206368
0.0206504
0.0206656
0.0206823
0.0207004
0.0207197
0.0207398
0.0207604
0.0207811
0.0208016
0.0208216
0.0208409
0.0208591
0.0208761
0.0208915
0.0209051
0.0209163
0.0209248
0.0209302
0.0209322
0.0209307
0.0209256
0.020917
0.0209054
0.0208914
0.0208757
0.0208591
0.0208425
0.0208265
0.020812
0.0207994
0.0207889
0.0207807
0.0207744
0.0207695
0.0207653
0.0207609
0.0207553
0.0207481
0.0207387
0.0207275
0.020715
0.0207024
0.0206912
0.0206828
0.0206786
0.0206796
0.0206861
0.020698
0.0207148
0.0207354
0.0207591
0.0207849
0.0208126
0.0208416
0.020872
0.0209036
0.0209357
0.0209676
0.0209983
0.0210263
0.0210506
0.0210703
0.021085
0.0210948
0.0210998
0.0211008
0.0210981
0.0210925
0.0210845
0.021075
0.0210647
0.0210545
0.0210455
0.0210382
0.0210332
0.0210305
0.0210299
0.021031
0.0210331
0.0210355
0.0210372
0.0210376
0.0210359
0.0210318
0.0210252
0.0210162
0.0210052
0.0209926
0.020979
0.0209648
0.0209506
0.0209369
0.0209244
0.0209136
0.0209051
0.0208995
0.0208969
0.0208977
0.0209019
0.0209094
0.0209202
0.0209343
0.0209515
0.0209717
0.0209949
0.0210208
0.0210491
0.0210795
0.0211113
0.0211438
0.0211762
0.0212076
0.0212373
0.0212644
0.0212883
0.0213086
0.0213253
0.0213385
0.0213486
0.0213562
0.021362
0.0213666
0.0213702
0.021373
0.021375
0.0213758
0.0213748
0.0213716
0.0213658
0.0213569
0.021345
0.0213302
0.021313
0.021294
0.021274
0.021254
0.021235
0.0212178
0.0212033
0.0211921
0.0211847
0.0211812
0.0211816
0.0211854
0.0211919
0.0212003
0.0212096
0.0212191
0.0212281
0.0212364
0.0212438
0.021251
0.0212584
0.021267
0.0212777
0.0212914
0.0213085
0.0213296
0.0213545
0.021383
0.0214145
0.0214479
0.0214824
0.0215165
0.0215492
0.0215793
0.0216059
0.0216283
0.021646
0.0216592
0.0216682
0.0216736
0.0216765
0.0216781
0.0216794
0.0216819
0.0216863
0.0216935
0.0217041
0.0217181
0.0217352
0.0217551
0.0217769
0.0217995
0.0218215
0.0218424
0.0218611
0.0218755
0.0218854
0.0218904
0.0218904
0.04
0.0253829
0.0266019
0.0266205
0.0263944
0.0238178
0.022275
0.023259
0.0239834
0.0228622
0.0219776
0.022162
0.0221829
0.0216688
0.0213195
0.0212638
0.0210468
0.020745
0.0205697
0.0204408
0.0202119
0.0200135
0.0198807
0.0197361
0.0195569
0.0194267
0.0193226
0.0192093
0.0191027
0.0190377
0.0189819
0.0189285
0.0188925
0.018878
0.0188606
0.0188447
0.0188365
0.0188302
0.0188154
0.0188011
0.0187884
0.0187738
0.0187563
0.0187432
0.0187335
0.0187262
0.0187233
0.0187289
0.018743
0.0187665
0.0188037
0.0188589
0.0189352
0.0190355
0.0191683
0.0193365
0.0195466
0.0197989
0.0201018
0.020449
0.0208455
0.0212776
0.0217495
0.0222374
0.0227444
0.0232379
0.0237243
0.024164
0.0245699
0.0249002
0.0251845
0.0253839
0.0255493
0.0256486
0.0257546
0.0258287
0.0259506
0.02606
0.0262314
0.0263783
0.0265795
0.0267356
0.0269426
0.027097
0.0273105
0.027464
0.0276742
0.0278074
0.0279894
0.0280772
0.0282135
0.0282626
0.0283763
0.0284078
0.0285113
0.0285399
0.0286349
0.0286435
0.0287112
0.028694
0.0287227
0.0286673
0.0286595
0.0285798
0.0285438
0.028448
0.0283935
0.0282888
0.0282183
0.0281057
0.0280254
0.0279148
0.0278297
0.0277225
0.0276357
0.0275274
0.0274307
0.0273143
0.0272005
0.027071
0.0269433
0.0268016
0.0266622
0.0265179
0.0263763
0.0262347
0.0261019
0.0259735
0.0258534
0.0257402
0.0256348
0.0255346
0.0254405
0.0253515
0.0252682
0.0251901
0.0251181
0.0250526
0.0249941
0.0249423
0.024897
0.0248581
0.0248245
0.0247946
0.0247679
0.0247432
0.0247187
0.0246937
0.0246681
0.0246405
0.0246109
0.0245809
0.0245508
0.024521
0.0244938
0.0244714
0.0244536
0.0244412
0.0244362
0.0244384
0.0244464
0.0244603
0.0244795
0.0245026
0.0245278
0.0245539
0.02458
0.024605
0.0246277
0.0246474
0.0246647
0.0246797
0.024692
0.0247022
0.0247117
0.0247204
0.0247282
0.024736
0.0247441
0.0247518
0.0247586
0.0247645
0.0247687
0.0247703
0.0247692
0.0247654
0.0247588
0.0247497
0.0247388
0.0247269
0.0247149
0.0247035
0.0246936
0.0246859
0.0246807
0.0246783
0.0246787
0.0246816
0.0246869
0.024694
0.0247026
0.0247124
0.0247232
0.0247348
0.024747
0.02476
0.0247738
0.0247886
0.0248046
0.0248219
0.0248407
0.0248608
0.0248822
0.0249047
0.024928
0.0249518
0.0249758
0.0249996
0.025023
0.0250458
0.0250675
0.025088
0.0251069
0.0251239
0.0251385
0.0251504
0.0251592
0.0251647
0.0251666
0.0251649
0.0251599
0.0251518
0.0251413
0.025129
0.0251157
0.0251022
0.0250893
0.0250777
0.0250678
0.02506
0.0250542
0.0250501
0.0250472
0.0250447
0.0250418
0.0250377
0.0250317
0.0250238
0.0250141
0.0250035
0.0249931
0.0249845
0.0249791
0.0249782
0.0249826
0.0249925
0.0250077
0.0250274
0.0250507
0.0250765
0.0251041
0.0251329
0.0251628
0.0251938
0.0252258
0.0252584
0.0252909
0.0253222
0.0253513
0.0253769
0.0253982
0.0254149
0.0254269
0.0254345
0.0254383
0.0254386
0.0254363
0.0254317
0.0254257
0.0254192
0.025413
0.0254079
0.0254046
0.0254035
0.0254046
0.0254076
0.0254121
0.0254173
0.0254227
0.0254272
0.0254301
0.0254309
0.025429
0.0254244
0.0254172
0.0254079
0.0253968
0.0253844
0.0253712
0.0253577
0.0253446
0.0253325
0.0253219
0.0253135
0.0253077
0.0253051
0.0253058
0.0253099
0.0253177
0.0253289
0.0253436
0.0253616
0.0253828
0.0254069
0.0254337
0.0254628
0.0254937
0.0255259
0.0255586
0.0255909
0.0256221
0.0256512
0.0256777
0.025701
0.0257208
0.0257372
0.0257503
0.0257608
0.0257691
0.025776
0.0257818
0.0257869
0.0257913
0.0257948
0.0257971
0.0257976
0.0257958
0.0257914
0.0257839
0.0257734
0.0257599
0.025744
0.0257261
0.0257071
0.0256879
0.0256694
0.0256525
0.025638
0.0256267
0.025619
0.0256151
0.0256149
0.0256182
0.0256242
0.0256322
0.0256413
0.0256507
0.0256599
0.0256684
0.0256763
0.0256839
0.0256916
0.0257003
0.0257108
0.0257239
0.02574
0.0257598
0.0257832
0.0258101
0.0258399
0.025872
0.0259052
0.0259384
0.0259706
0.0260004
0.0260269
0.0260494
0.0260674
0.0260807
0.0260898
0.0260952
0.026098
0.0260993
0.0261005
0.0261027
0.0261071
0.0261143
0.0261249
0.0261389
0.0261563
0.0261761
0.0261975
0.0262198
0.0262416
0.0262612
0.0262777
0.0262908
0.0263001
0.0263041
0.0263041
0.04
0.0262795
0.0273693
0.026022
0.025272
0.0254146
0.0264775
0.0258575
0.024453
0.0243218
0.0249983
0.0247067
0.0239437
0.0237658
0.02385
0.0235771
0.0232186
0.02309
0.0229592
0.022711
0.022507
0.0223871
0.0222153
0.0220232
0.0218841
0.0217691
0.021623
0.0214976
0.0214095
0.0213292
0.0212463
0.0211952
0.0211654
0.0211392
0.0211201
0.0211207
0.0211237
0.0211235
0.0211259
0.021133
0.0211344
0.0211335
0.0211353
0.0211392
0.0211418
0.0211484
0.0211613
0.0211802
0.0212054
0.021242
0.0212928
0.0213594
0.021446
0.0215589
0.0217033
0.0218819
0.0221021
0.0223667
0.0226799
0.0230383
0.0234449
0.0238898
0.0243715
0.0248719
0.025388
0.0258945
0.0263892
0.0268407
0.0272526
0.0275942
0.0278825
0.0280905
0.0282578
0.0283665
0.028475
0.0285609
0.0286896
0.0288158
0.0289983
0.0291645
0.0293771
0.0295506
0.0297698
0.0299408
0.0301664
0.030337
0.0305661
0.0307171
0.0309164
0.0310207
0.0311807
0.031242
0.0313766
0.0314224
0.0315535
0.0315895
0.0317111
0.03173
0.0318257
0.0318131
0.0318718
0.0318229
0.0318448
0.03177
0.031764
0.0316736
0.0316479
0.0315462
0.0315013
0.0313924
0.0313341
0.0312244
0.0311568
0.0310484
0.0309751
0.030863
0.0307717
0.0306513
0.0305418
0.0304027
0.0302741
0.0301262
0.0299813
0.0298253
0.0296775
0.0295235
0.0293782
0.0292352
0.029101
0.0289699
0.0288475
0.0287289
0.0286167
0.0285088
0.0284072
0.0283105
0.0282205
0.028137
0.0280608
0.0279922
0.0279311
0.0278768
0.027829
0.0277866
0.0277478
0.0277119
0.0276778
0.0276435
0.0276087
0.0275736
0.0275373
0.0275
0.0274639
0.0274297
0.0273974
0.0273693
0.0273475
0.0273316
0.0273217
0.0273191
0.0273235
0.0273333
0.0273478
0.0273662
0.027387
0.0274089
0.0274304
0.0274504
0.027469
0.0274853
0.0274987
0.0275102
0.0275207
0.0275298
0.0275379
0.0275462
0.0275548
0.0275631
0.0275714
0.0275797
0.0275873
0.0275933
0.0275977
0.0275999
0.0275995
0.0275963
0.0275908
0.0275832
0.027574
0.027564
0.0275538
0.0275442
0.0275359
0.0275293
0.0275251
0.0275235
0.0275244
0.0275278
0.0275334
0.027541
0.0275502
0.0275607
0.0275723
0.0275848
0.0275981
0.0276123
0.0276273
0.0276433
0.0276604
0.0276788
0.0276984
0.0277192
0.0277411
0.0277639
0.0277875
0.0278117
0.027836
0.0278604
0.0278844
0.0279079
0.0279305
0.0279519
0.0279717
0.0279896
0.0280052
0.0280181
0.0280281
0.0280348
0.0280381
0.028038
0.0280347
0.0280283
0.0280195
0.0280089
0.0279971
0.027985
0.0279734
0.0279629
0.0279539
0.0279469
0.0279417
0.0279381
0.0279355
0.0279332
0.0279303
0.0279261
0.02792
0.0279121
0.0279026
0.0278925
0.0278829
0.0278755
0.0278716
0.0278725
0.0278788
0.0278906
0.0279074
0.0279285
0.0279527
0.0279788
0.0280062
0.0280343
0.028063
0.0280924
0.0281226
0.0281534
0.0281842
0.0282142
0.0282421
0.028267
0.0282881
0.0283049
0.0283175
0.0283261
0.0283312
0.0283333
0.028333
0.0283308
0.0283274
0.0283237
0.0283204
0.0283183
0.028318
0.0283197
0.0283234
0.0283288
0.0283355
0.0283427
0.0283497
0.0283557
0.0283599
0.0283618
0.028361
0.0283573
0.0283509
0.028342
0.0283313
0.028319
0.0283058
0.0282921
0.0282785
0.0282656
0.0282542
0.0282447
0.0282378
0.0282339
0.0282333
0.0282362
0.0282429
0.0282532
0.0282671
0.0282844
0.028305
0.0283285
0.0283546
0.0283828
0.0284126
0.0284434
0.0284743
0.0285047
0.0285336
0.0285603
0.0285842
0.0286049
0.0286223
0.0286364
0.0286477
0.0286567
0.028664
0.0286702
0.0286757
0.0286806
0.028685
0.0286886
0.028691
0.0286916
0.02869
0.0286858
0.0286786
0.0286683
0.0286551
0.0286394
0.0286218
0.0286028
0.0285835
0.0285647
0.0285472
0.028532
0.0285198
0.0285109
0.0285057
0.0285041
0.0285058
0.0285102
0.0285167
0.0285244
0.0285325
0.0285405
0.0285481
0.0285552
0.028562
0.0285689
0.0285766
0.0285857
0.0285971
0.0286112
0.0286285
0.0286492
0.0286732
0.0287
0.028729
0.0287592
0.0287897
0.0288193
0.0288468
0.0288713
0.0288919
0.0289082
0.02892
0.0289276
0.0289317
0.0289332
0.0289334
0.0289334
0.0289345
0.0289378
0.028944
0.0289535
0.0289663
0.0289823
0.0290007
0.0290204
0.0290404
0.0290599
0.0290774
0.0290918
0.0291024
0.0291082
0.029109
0.029109
0.04
0.0242797
0.0248417
0.0260237
0.0267781
0.0266691
0.0263461
0.0257228
0.0260611
0.0264636
0.0259877
0.025332
0.0254639
0.0256447
0.0252931
0.0249091
0.024884
0.0248325
0.0245687
0.024359
0.0242713
0.0241274
0.0239249
0.0237884
0.0236784
0.0235285
0.0233817
0.0232824
0.0231824
0.0230733
0.0229904
0.0229385
0.0228871
0.0228475
0.0228333
0.022833
0.0228316
0.0228399
0.0228572
0.022873
0.0228847
0.0229007
0.0229173
0.0229315
0.0229464
0.0229668
0.0229903
0.0230178
0.0230531
0.0230999
0.0231583
0.0232317
0.0233265
0.023447
0.0235966
0.0237813
0.0240078
0.0242783
0.0245957
0.02496
0.0253712
0.0258216
0.0263066
0.0268122
0.0273308
0.0278423
0.0283376
0.0287924
0.0292038
0.0295483
0.0298323
0.0300416
0.0302049
0.0303155
0.0304195
0.0305118
0.0306416
0.0307791
0.0309654
0.0311451
0.0313617
0.0315475
0.0317683
0.0319503
0.0321808
0.0323654
0.0326018
0.0327679
0.0329788
0.0330968
0.0332692
0.0333434
0.033493
0.033551
0.0337022
0.033747
0.0338878
0.0339166
0.0340357
0.0340269
0.0341114
0.0340711
0.0341202
0.0340508
0.0340755
0.0339924
0.0339961
0.0338992
0.0338829
0.0337802
0.0337463
0.0336392
0.0335963
0.0334893
0.0334304
0.0333197
0.0332424
0.0331166
0.0330158
0.0328756
0.0327504
0.0325968
0.0324548
0.032292
0.0321406
0.0319783
0.0318262
0.0316704
0.0315249
0.0313788
0.0312412
0.031105
0.0309761
0.0308501
0.0307304
0.0306152
0.0305072
0.0304053
0.0303111
0.0302246
0.0301467
0.0300762
0.030013
0.0299562
0.0299047
0.0298562
0.0298103
0.0297657
0.0297209
0.0296759
0.0296313
0.0295865
0.0295424
0.029501
0.029463
0.0294287
0.0293997
0.0293777
0.0293622
0.0293528
0.02935
0.0293533
0.0293611
0.0293721
0.0293853
0.0293995
0.0294135
0.0294261
0.0294367
0.0294458
0.0294532
0.0294586
0.0294634
0.0294685
0.0294734
0.0294784
0.0294844
0.029491
0.0294972
0.0295031
0.0295084
0.0295121
0.0295137
0.0295132
0.0295104
0.0295052
0.0294978
0.0294888
0.0294786
0.0294676
0.0294565
0.0294459
0.0294363
0.0294283
0.0294223
0.0294185
0.0294171
0.0294181
0.0294213
0.0294265
0.0294334
0.0294418
0.0294515
0.0294622
0.0294739
0.0294866
0.0295003
0.0295149
0.0295306
0.0295474
0.0295652
0.0295841
0.0296039
0.0296246
0.029646
0.0296679
0.0296902
0.0297125
0.0297348
0.0297566
0.0297776
0.0297976
0.0298161
0.0298329
0.0298474
0.0298595
0.0298688
0.029875
0.0298781
0.0298778
0.0298744
0.0298681
0.0298592
0.0298484
0.0298363
0.0298236
0.0298111
0.0297996
0.0297895
0.0297811
0.0297745
0.0297693
0.029765
0.0297608
0.0297559
0.0297497
0.0297417
0.0297319
0.0297209
0.0297095
0.0296992
0.0296914
0.0296874
0.0296883
0.0296947
0.0297065
0.0297231
0.0297435
0.0297664
0.0297907
0.0298157
0.029841
0.0298665
0.0298924
0.029919
0.0299461
0.0299735
0.0300003
0.0300254
0.030048
0.0300673
0.0300829
0.0300947
0.030103
0.0301083
0.0301109
0.0301114
0.0301102
0.0301082
0.0301059
0.0301041
0.0301036
0.0301048
0.0301078
0.0301127
0.030119
0.0301262
0.0301338
0.030141
0.0301471
0.0301513
0.0301531
0.0301521
0.0301481
0.0301413
0.0301319
0.0301203
0.0301071
0.0300927
0.0300776
0.0300625
0.0300478
0.0300344
0.0300227
0.0300135
0.0300071
0.0300041
0.0300047
0.0300092
0.0300174
0.0300294
0.0300449
0.0300638
0.0300855
0.0301096
0.0301356
0.0301629
0.0301908
0.0302186
0.0302455
0.0302706
0.0302934
0.0303133
0.03033
0.0303436
0.0303543
0.0303626
0.030369
0.0303742
0.0303787
0.0303828
0.0303867
0.0303902
0.030393
0.0303946
0.0303946
0.0303924
0.0303876
0.0303799
0.0303693
0.0303558
0.0303398
0.0303217
0.0303023
0.0302823
0.0302626
0.030244
0.0302275
0.0302136
0.0302029
0.0301957
0.0301918
0.0301911
0.0301931
0.030197
0.0302022
0.030208
0.0302139
0.0302195
0.0302248
0.0302298
0.0302351
0.0302409
0.030248
0.030257
0.0302683
0.0302825
0.0302997
0.0303199
0.0303428
0.0303678
0.0303942
0.0304209
0.0304469
0.0304711
0.0304925
0.0305104
0.0305242
0.0305337
0.0305393
0.0305416
0.0305415
0.0305402
0.0305388
0.0305387
0.0305408
0.0305457
0.0305539
0.0305653
0.0305794
0.0305957
0.0306132
0.0306307
0.0306468
0.0306609
0.030672
0.0306793
0.0306823
0.0306809
0.0306809
0.04
0.0243092
0.0250364
0.0255295
0.0257636
0.0258347
0.0260247
0.026482
0.0268164
0.0262358
0.0259786
0.0264377
0.0265996
0.0260881
0.0258715
0.0260725
0.026037
0.0257098
0.0255773
0.025591
0.025454
0.0252472
0.0251535
0.0250767
0.0249206
0.0247795
0.0246929
0.0245873
0.0244555
0.02436
0.0242887
0.024207
0.0241352
0.0240999
0.0240766
0.0240555
0.0240526
0.0240687
0.0240839
0.0240998
0.0241243
0.0241514
0.0241728
0.0241958
0.0242235
0.0242517
0.0242803
0.0243158
0.0243595
0.0244106
0.0244723
0.0245516
0.0246509
0.0247728
0.0249247
0.0251131
0.0253412
0.0256125
0.0259317
0.0262985
0.0267106
0.0271629
0.0276491
0.0281569
0.0286762
0.0291891
0.0296829
0.0301389
0.0305472
0.0308888
0.0311661
0.0313724
0.0315255
0.0316303
0.0317257
0.0318171
0.0319409
0.0320831
0.0322687
0.0324565
0.0326727
0.0328664
0.0330846
0.0332744
0.0335056
0.0337008
0.0339389
0.0341182
0.034337
0.0344665
0.0346421
0.0347294
0.0348912
0.0349566
0.0351163
0.0351743
0.0353302
0.0353623
0.0354972
0.0354983
0.0356025
0.035567
0.0356395
0.0355788
0.0356295
0.0355515
0.0355815
0.0354924
0.0355014
0.0354024
0.0353942
0.0352914
0.0352696
0.0351657
0.0351239
0.0350132
0.0349516
0.0348244
0.0347335
0.0345941
0.0344773
0.0343203
0.0341843
0.0340191
0.0338679
0.0336999
0.0335454
0.0333802
0.0332265
0.0330682
0.0329189
0.0327681
0.0326252
0.0324835
0.0323487
0.0322174
0.0320934
0.031975
0.031865
0.0317625
0.0316691
0.031584
0.0315074
0.0314376
0.0313742
0.0313152
0.0312592
0.0312051
0.0311522
0.0310993
0.0310469
0.0309961
0.0309464
0.0308987
0.0308551
0.0308163
0.0307821
0.0307539
0.0307327
0.030718
0.030709
0.0307053
0.0307061
0.0307102
0.030716
0.0307219
0.0307277
0.0307328
0.0307357
0.0307366
0.030737
0.0307369
0.0307359
0.0307357
0.030737
0.0307392
0.0307417
0.0307453
0.0307492
0.0307522
0.030754
0.0307545
0.0307529
0.0307489
0.0307427
0.0307345
0.0307244
0.0307129
0.0307005
0.0306875
0.0306744
0.0306616
0.0306497
0.0306391
0.0306301
0.0306231
0.0306184
0.0306159
0.0306156
0.0306173
0.0306209
0.0306262
0.0306328
0.0306407
0.0306498
0.03066
0.0306712
0.0306835
0.0306967
0.0307108
0.0307258
0.0307416
0.0307583
0.0307756
0.0307936
0.0308121
0.0308311
0.0308503
0.0308696
0.0308886
0.0309069
0.0309244
0.0309405
0.0309551
0.0309677
0.0309781
0.0309859
0.0309908
0.0309928
0.0309916
0.0309874
0.0309801
0.0309702
0.0309581
0.0309444
0.0309298
0.0309153
0.0309014
0.0308887
0.0308776
0.0308683
0.0308603
0.0308531
0.0308461
0.0308384
0.0308293
0.0308186
0.0308063
0.030793
0.0307797
0.0307677
0.0307585
0.0307534
0.0307533
0.0307587
0.0307693
0.0307843
0.0308028
0.0308234
0.0308449
0.0308665
0.030888
0.0309094
0.0309309
0.030953
0.0309757
0.0309987
0.0310214
0.0310428
0.0310621
0.0310786
0.031092
0.0311021
0.0311093
0.0311139
0.0311162
0.0311167
0.0311159
0.0311144
0.0311129
0.0311119
0.0311121
0.0311139
0.0311174
0.0311224
0.0311286
0.0311355
0.0311425
0.0311489
0.0311541
0.0311574
0.0311583
0.0311563
0.0311513
0.0311434
0.0311328
0.03112
0.0311053
0.0310893
0.0310725
0.0310554
0.0310387
0.0310231
0.0310092
0.0309975
0.0309887
0.0309832
0.0309813
0.0309833
0.0309893
0.0309991
0.0310125
0.0310292
0.0310487
0.0310704
0.0310938
0.0311181
0.0311426
0.0311667
0.0311895
0.0312105
0.0312288
0.0312443
0.0312567
0.0312661
0.031273
0.0312778
0.0312812
0.0312838
0.0312862
0.0312885
0.0312907
0.0312928
0.0312944
0.0312948
0.0312937
0.0312905
0.0312848
0.0312763
0.0312649
0.0312508
0.0312342
0.0312155
0.0311954
0.0311747
0.0311541
0.0311346
0.0311169
0.0311016
0.0310893
0.0310802
0.0310743
0.0310712
0.0310707
0.0310719
0.0310745
0.0310777
0.0310811
0.0310844
0.0310877
0.0310909
0.0310944
0.0310985
0.0311038
0.0311108
0.0311198
0.0311314
0.0311456
0.0311626
0.0311819
0.0312032
0.0312257
0.0312485
0.0312707
0.0312913
0.0313093
0.0313241
0.0313352
0.0313425
0.0313461
0.0313468
0.0313455
0.0313432
0.031341
0.0313402
0.0313415
0.0313456
0.0313527
0.031363
0.0313756
0.0313899
0.0314051
0.0314201
0.0314336
0.0314448
0.0314527
0.0314566
0.0314568
0.0314531
0.0314531
0.04
0.0249847
0.0255263
0.0252162
0.0255981
0.0260044
0.0261906
0.0262213
0.0261775
0.0262866
0.0267087
0.0266499
0.0263106
0.0263565
0.0266541
0.0265425
0.0262658
0.0262648
0.0263604
0.0262241
0.0260481
0.0260164
0.0259835
0.0258447
0.0257262
0.0256674
0.0255762
0.0254495
0.0253555
0.0252805
0.0251825
0.0250901
0.0250303
0.0249811
0.0249314
0.0249052
0.0249023
0.024904
0.0249108
0.024933
0.0249603
0.0249848
0.0250115
0.0250439
0.0250751
0.0251057
0.0251411
0.0251826
0.0252278
0.0252809
0.0253471
0.0254286
0.0255272
0.0256501
0.0258037
0.0259914
0.0262179
0.0264894
0.0268082
0.0271736
0.0275847
0.0280364
0.0285211
0.0290282
0.0295453
0.0300559
0.0305469
0.0310005
0.031402
0.0317388
0.0320093
0.0322083
0.0323501
0.0324493
0.0325364
0.0326244
0.0327436
0.0328898
0.0330754
0.0332699
0.0334845
0.0336833
0.0338997
0.0340951
0.0343219
0.0345252
0.034767
0.0349564
0.0351752
0.0353166
0.0354974
0.0355925
0.0357582
0.0358351
0.0360017
0.0360675
0.0362324
0.0362703
0.0364158
0.0364245
0.0365423
0.0365124