# vtk DataFile Version 3.0
LBM output step 720
ASCII
DATASET STRUCTURED_POINTS
DIMENSIONS 400 100 1
ORIGIN 0 0 0
SPACING 1 1 1
POINT_DATA 40000
SCALARS velocity_magnitude double 1
LOOKUP_TABLE default
0
0
0
0
0
0
0
0
0
0
0
0
0
0
0
0
0
0
0
0
0
0
0
0
0
0
0
0
0
0
0
0
0
0
0
0
0
0
0
0
0
0
0
0
0
0
0
0
0
0
0
0
0
0
0
0
0
0
0
0
0
0
0
0
0
0
0
0
0
0
0
0
0
0
0
0
0
0
0
0
0
0
0
0
0
0
0
0
0
0
0
0
0
0
0
0
0
0
0
0
0
0
0
0
0
0
0
0
0
0
0
0
0
0
0
0
0
0
0
0
0
0
0
0
0
0
0
0
0
0
0
0
0
0
0
0
0
0
0
0
0
0
0
0
0
0
0
0
0
0
0
0
0
0
0
0
0
0
0
0
0
0
0
0
0
0
0
0
0
0
0
0
0
0
0
0
0
0
0
0
0
0
0
0
0
0
0
0
0
0
0
0
0
0
0
0
0
0
0
0
0
0
0
0
0
0
0
0
0
0
0
0
0
0
0
0
0
0
0
0
0
0
0
0
0
0
0
0
0
0
0
0
0
0
0
0
0
0
0
0
0
0
0
0
0
0
0
0
0
0
0
0
0
0
0
0
0
0
0
0
0
0
0
0
0
0
0
0
0
0
0
0
0
0
0
0
0
0
0
0
0
0
0
0
0
0
0
0
0
0
0
0
0
0
0
0
0
0
0
0
0
0
0
0
0
0
0
0
0
0
0
0
0
0
0
0
0
0
0
0
0
0
0
0
0
0
0
0
0
0
0
0
0
0
0
0
0
0
0
0
0
0
0
0
0
0
0
0
0
0
0
0
0
0
0
0
0
0
0
0
0
0
0
0
0
0
0
0
0
0
0
0
0
0
0
0
0
0
0
0
0
0
0
0
0
0
0
0
0
0
0
0
0
0
0
0
0
0
0
0
0.04
0.0144673
0.00892118
0.0138522
0.0162582
0.0158653
0.0128681
0.0123175
0.0123752
0.0124399
0.0120906
0.0120946
0.0118389
0.0116762
0.0115562
0.0115633
0.0114145
0.0113274
0.0112589
0.0112204
0.0111179
0.0110589
0.0109873
0.010911
0.0108104
0.010737
0.0106491
0.0105569
0.0104592
0.010369
0.0102662
0.0101545
0.0100463
0.0099298
0.00981681
0.00969216
0.00958848
0.00946598
0.00936906
0.00924969
0.00916498
0.00904718
0.00896811
0.00885268
0.00877695
0.00866023
0.00858328
0.0084664
0.00838497
0.00826733
0.00818165
0.00806688
0.00797945
0.00787145
0.00778757
0.00769228
0.007617
0.00753768
0.00747704
0.00741816
0.00737422
0.00733657
0.00731273
0.00729465
0.00728637
0.00728492
0.00728966
0.00729702
0.00730877
0.00732335
0.00733873
0.00735529
0.00737468
0.00739496
0.00741529
0.00743753
0.00746159
0.00748491
0.00750839
0.00753341
0.00755854
0.0075824
0.00760746
0.00763418
0.00766113
0.00768833
0.00771811
0.0077492
0.00778006
0.00781077
0.0078423
0.007872
0.00789855
0.00792176
0.0079413
0.00795407
0.00795972
0.00795837
0.00794958
0.0079323
0.00790889
0.00788033
0.00784755
0.00781216
0.00777674
0.00774128
0.00770679
0.00767423
0.00764398
0.0076151
0.00758817
0.00756292
0.00753865
0.00751424
0.0074898
0.00746439
0.00743713
0.00740796
0.00737781
0.00734614
0.00731353
0.00728162
0.00725088
0.00722084
0.00719351
0.00717035
0.00715095
0.00713655
0.00713005
0.00713108
0.00713851
0.00715353
0.00717549
0.00720016
0.00722563
0.00725172
0.00727507
0.00729233
0.00730457
0.0073123
0.00731306
0.00730725
0.00729791
0.00728483
0.00726681
0.00724625
0.00722544
0.00720365
0.00718121
0.00716066
0.00714283
0.00712672
0.00711279
0.00710239
0.00709531
0.00709065
0.00708887
0.00709075
0.00709575
0.00710305
0.00711255
0.00712363
0.0071348
0.00714531
0.00715538
0.00716498
0.00717408
0.00718324
0.00719297
0.00720341
0.00721507
0.00722881
0.00724516
0.00726461
0.00728808
0.00731615
0.00734878
0.00738583
0.00742727
0.00747284
0.00752218
0.00757513
0.00763128
0.00768954
0.00774846
0.00780658
0.00786233
0.00791413
0.00796098
0.00800324
0.00804284
0.00808284
0.00812631
0.0081747
0.00822695
0.00828002
0.00833027
0.0083745
0.00841019
0.00843491
0.008446
0.00844102
0.00841927
0.00838295
0.00833694
0.008287
0.00823759
0.00819061
0.00814603
0.00810369
0.00806492
0.00803264
0.00800978
0.00799729
0.0079934
0.00799477
0.00799904
0.00800701
0.00802287
0.00805216
0.00809831
0.00816004
0.00823092
0.00830182
0.00836504
0.0084181
0.00846535
0.00851666
0.00858368
0.00867536
0.00879438
0.00893573
0.00908768
0.00923457
0.00936049
0.00945266
0.00950378
0.00951282
0.00948441
0.00942715
0.00935143
0.00926749
0.00918389
0.00910682
0.00904007
0.00898553
0.00894397
0.0089157
0.00890104
0.00890037
0.00891394
0.00894146
0.00898171
0.00903227
0.00908958
0.00914924
0.00920657
0.00925719
0.00929762
0.00932563
0.00934037
0.00934231
0.00933294
0.00931442
0.00928922
0.00925971
0.00922804
0.00919597
0.00916499
0.00913635
0.00911125
0.00909084
0.00907612
0.00906778
0.00906593
0.00906995
0.00907844
0.00908944
0.00910067
0.00910993
0.00911532
0.00911537
0.009109
0.00909549
0.00907439
0.00904564
0.00900976
0.008968
0.00892253
0.00887634
0.00883297
0.00879613
0.0087692
0.00875508
0.00875597
0.00877342
0.00880831
0.00886069
0.00892965
0.0090133
0.0091089
0.00921322
0.00932286
0.00943457
0.00954521
0.00965176
0.00975136
0.00984162
0.00992107
0.0099895
0.010048
0.0100987
0.0101438
0.0101851
0.0102239
0.0102604
0.0102948
0.0103271
0.0103576
0.0103867
0.0104149
0.0104426
0.0104698
0.0104966
0.0105235
0.0105509
0.0105794
0.0106096
0.0106417
0.010676
0.0107133
0.0107553
0.0108052
0.0108668
0.0109442
0.0110405
0.0111567
0.0112917
0.0114417
0.0116012
0.0117637
0.0119222
0.0120703
0.0122026
0.0123151
0.012406
0.0124755
0.0125267
0.0125643
0.0125936
0.0126203
0.0126495
0.0126849
0.0127282
0.0127786
0.0128337
0.0128913
0.0129508
0.0130129
0.01308
0.013155
0.0132398
0.0133328
0.0134274
0.0135145
0.0135868
0.0136438
0.0136933
0.0137523
0.0138473
0.0140139
0.0142929
0.0147236
0.0153345
0.0161332
0.01709
0.0181129
0.019033
0.0196335
0.0197549
0.0194344
0.0189398
0.018596
0.0185256
0.0185907
0.0185739
0.0183732
0.01807
0.0178668
0.0179102
0.0181656
0.018475
0.0187024
0.0188243
0.0189316
0.0191346
0.0194908
0.0198424
0.0199984
0.0199984
0.04
0.0232991
0.024605
0.0220575
0.0151068
0.0145462
0.0176902
0.0183817
0.0167977
0.0162364
0.0164146
0.0163138
0.0160219
0.0160229
0.0159364
0.0157558
0.0156803
0.0157397
0.0157058
0.0156574
0.0156649
0.0156803
0.0156279
0.0155811
0.0155458
0.015489
0.0154066
0.0153405
0.0152759
0.0151929
0.0151088
0.0150278
0.0149488
0.0148502
0.014772
0.0146794
0.0146105
0.0145131
0.0144618
0.0143701
0.0143308
0.0142385
0.0142146
0.0141215
0.0141031
0.0140084
0.0139937
0.0138962
0.0138781
0.0137806
0.0137587
0.0136644
0.0136384
0.0135544
0.0135302
0.0134609
0.0134422
0.0133954
0.0133885
0.013364
0.0133737
0.0133761
0.0134018
0.0134264
0.0134706
0.0135142
0.0135686
0.0136262
0.0136912
0.0137551
0.0138241
0.0138961
0.0139693
0.014042
0.014119
0.0141971
0.0142733
0.0143501
0.0144297
0.0145072
0.014582
0.0146584
0.0147358
0.0148095
0.0148825
0.0149579
0.0150323
0.0151024
0.0151726
0.0152422
0.0153068
0.0153654
0.015421
0.0154701
0.0155095
0.0155401
0.0155622
0.0155726
0.015572
0.0155616
0.0155414
0.0155126
0.0154781
0.0154378
0.0153939
0.0153489
0.0153022
0.0152536
0.0152065
0.0151595
0.0151106
0.0150627
0.0150161
0.0149663
0.014915
0.0148647
0.0148115
0.0147542
0.0146983
0.0146423
0.0145837
0.0145265
0.0144736
0.0144218
0.014372
0.014329
0.0142926
0.0142607
0.0142371
0.014224
0.0142184
0.0142188
0.0142268
0.0142397
0.0142524
0.0142638
0.0142742
0.0142801
0.0142791
0.0142734
0.0142641
0.014249
0.0142289
0.0142072
0.014184
0.0141579
0.0141312
0.0141066
0.0140833
0.014061
0.0140422
0.0140276
0.014016
0.0140076
0.0140037
0.014004
0.0140076
0.0140148
0.014026
0.0140405
0.0140574
0.0140761
0.014096
0.0141163
0.0141366
0.0141571
0.0141781
0.0141995
0.0142216
0.0142452
0.0142704
0.0142977
0.014328
0.0143621
0.0144002
0.0144429
0.0144907
0.0145432
0.0145999
0.0146607
0.0147254
0.0147932
0.0148636
0.0149354
0.0150073
0.0150777
0.0151451
0.0152081
0.0152662
0.0153195
0.0153697
0.0154197
0.0154719
0.0155276
0.0155857
0.0156433
0.0156968
0.015743
0.0157796
0.0158043
0.015815
0.0158097
0.0157883
0.0157532
0.0157092
0.0156619
0.0156157
0.0155729
0.0155338
0.0154985
0.0154686
0.0154466
0.0154353
0.0154353
0.0154449
0.0154606
0.0154805
0.0155051
0.0155385
0.0155859
0.0156501
0.0157296
0.0158176
0.0159053
0.0159852
0.016055
0.0161192
0.0161872
0.0162702
0.0163762
0.016507
0.0166568
0.0168134
0.0169608
0.0170835
0.0171692
0.0172115
0.0172103
0.0171714
0.0171043
0.0170201
0.0169295
0.0168413
0.0167617
0.0166947
0.0166419
0.0166042
0.0165815
0.0165738
0.016581
0.0166027
0.0166379
0.0166848
0.0167406
0.0168015
0.0168633
0.0169217
0.0169729
0.0170139
0.0170428
0.017059
0.0170628
0.0170556
0.0170393
0.0170162
0.0169885
0.0169584
0.0169279
0.0168987
0.0168723
0.0168499
0.0168327
0.0168215
0.0168167
0.0168183
0.0168256
0.0168373
0.0168518
0.0168673
0.0168821
0.0168947
0.0169039
0.0169088
0.0169085
0.0169024
0.0168901
0.0168719
0.0168487
0.0168222
0.0167952
0.0167709
0.0167527
0.0167442
0.0167482
0.0167673
0.0168031
0.0168568
0.0169286
0.0170174
0.0171214
0.0172375
0.0173622
0.0174917
0.0176225
0.0177506
0.0178726
0.0179853
0.0180862
0.0181743
0.01825
0.0183148
0.0183712
0.0184218
0.0184689
0.0185139
0.0185579
0.0186014
0.0186447
0.0186877
0.0187307
0.0187736
0.0188164
0.0188594
0.0189027
0.0189465
0.0189915
0.0190378
0.0190858
0.0191359
0.0191886
0.019245
0.0193073
0.0193785
0.0194621
0.0195616
0.0196793
0.0198161
0.0199701
0.0201374
0.0203122
0.0204874
0.0206555
0.0208098
0.0209448
0.021057
0.0211451
0.0212105
0.0212566
0.0212889
0.0213131
0.0213346
0.0213583
0.0213875
0.0214235
0.0214659
0.0215129
0.0215628
0.0216151
0.0216703
0.0217299
0.0217951
0.0218666
0.021942
0.022016
0.0220811
0.0221323
0.0221705
0.0222039
0.0222487
0.0223293
0.0224788
0.0227365
0.0231422
0.0237276
0.0245056
0.0254529
0.0264842
0.0274347
0.0280869
0.0282756
0.0280284
0.0276072
0.0273333
0.0273284
0.0274543
0.0274943
0.0273536
0.0271165
0.02698
0.0270832
0.027391
0.0277498
0.0280189
0.0281762
0.0283211
0.0285439
0.0288354
0.0291047
0.0292476
0.0292476
0.04
0.0243388
0.0222761
0.0192429
0.0203017
0.0223654
0.0213271
0.0197102
0.0199693
0.0205402
0.0200358
0.0194951
0.0194512
0.019439
0.019196
0.0190984
0.0191071
0.0190734
0.0190259
0.0190922
0.0191512
0.0191617
0.0191706
0.0192057
0.0191982
0.019166
0.0191397
0.0191161
0.0190686
0.0190184
0.0189774
0.0189268
0.0188716
0.0188132
0.0187712
0.0187095
0.0186713
0.0186136
0.0185948
0.0185342
0.018531
0.0184717
0.0184842
0.018418
0.0184433
0.0183719
0.018404
0.0183258
0.0183611
0.0182799
0.0183142
0.0182346
0.0182672
0.0181976
0.0182299
0.0181761
0.0182129
0.0181829
0.0182257
0.0182218
0.0182772
0.0182993
0.0183649
0.0184124
0.0184903
0.0185547
0.018641
0.0187215
0.0188132
0.018901
0.018999
0.0190951
0.0191944
0.0192949
0.0194001
0.0195032
0.0196075
0.019714
0.0198208
0.0199244
0.0200294
0.0201355
0.0202388
0.0203398
0.0204429
0.0205448
0.0206425
0.0207386
0.0208347
0.0209257
0.0210106
0.0210918
0.0211684
0.0212355
0.0212935
0.0213437
0.021384
0.0214109
0.0214265
0.0214322
0.0214265
0.0214088
0.0213843
0.0213535
0.0213146
0.0212707
0.0212255
0.0211756
0.0211215
0.0210674
0.021012
0.0209517
0.0208905
0.0208289
0.0207629
0.0206934
0.0206241
0.020552
0.0204763
0.0204008
0.0203262
0.0202502
0.0201752
0.0201046
0.0200372
0.0199728
0.0199154
0.0198661
0.0198233
0.0197882
0.019763
0.0197452
0.0197319
0.019723
0.0197174
0.0197105
0.0197005
0.0196884
0.0196729
0.0196519
0.019627
0.0196004
0.019571
0.0195385
0.019506
0.0194742
0.0194418
0.01941
0.0193811
0.0193547
0.0193303
0.0193094
0.0192927
0.0192798
0.0192706
0.0192653
0.0192643
0.0192669
0.0192728
0.0192818
0.019294
0.0193083
0.019324
0.0193411
0.0193592
0.019378
0.0193974
0.0194178
0.0194391
0.0194613
0.0194851
0.019511
0.0195392
0.0195705
0.0196055
0.0196445
0.0196878
0.0197355
0.0197876
0.0198435
0.019903
0.0199656
0.0200304
0.0200962
0.020162
0.0202265
0.0202887
0.0203476
0.0204028
0.0204546
0.0205043
0.0205537
0.0206047
0.0206581
0.0207131
0.0207669
0.0208167
0.0208594
0.0208928
0.020915
0.0209242
0.020919
0.0208992
0.0208667
0.0208256
0.0207806
0.0207358
0.0206933
0.0206538
0.020618
0.0205873
0.0205639
0.0205502
0.0205464
0.020551
0.0205612
0.0205753
0.0205943
0.0206221
0.0206636
0.0207214
0.0207938
0.0208747
0.0209555
0.0210293
0.0210938
0.0211528
0.0212152
0.0212913
0.0213889
0.0215099
0.021649
0.0217947
0.0219322
0.0220464
0.0221257
0.0221636
0.0221599
0.0221199
0.0220526
0.0219683
0.0218773
0.0217883
0.0217074
0.0216388
0.0215847
0.0215458
0.0215221
0.0215131
0.0215179
0.0215353
0.0215637
0.0216009
0.0216445
0.0216915
0.0217391
0.0217846
0.0218254
0.0218594
0.0218852
0.0219017
0.0219084
0.0219055
0.0218936
0.021874
0.0218483
0.0218183
0.0217861
0.0217534
0.0217219
0.0216927
0.021667
0.0216453
0.0216279
0.021615
0.0216062
0.0216012
0.0215996
0.0216005
0.0216034
0.0216075
0.0216117
0.021615
0.021616
0.0216136
0.0216067
0.0215948
0.0215779
0.021557
0.0215338
0.0215109
0.0214909
0.021477
0.0214719
0.0214786
0.0214993
0.0215357
0.0215886
0.0216577
0.0217415
0.0218376
0.021943
0.022054
0.0221667
0.0222769
0.0223804
0.0224736
0.0225541
0.0226208
0.0226743
0.0227163
0.0227492
0.0227757
0.0227982
0.022819
0.0228398
0.0228619
0.022886
0.0229118
0.0229388
0.0229663
0.0229937
0.0230209
0.0230478
0.0230744
0.0231008
0.0231269
0.0231529
0.0231793
0.0232072
0.0232384
0.0232751
0.0233201
0.0233762
0.0234461
0.0235319
0.0236343
0.0237524
0.023883
0.0240211
0.02416
0.0242922
0.0244107
0.0245098
0.0245861
0.0246386
0.024669
0.0246809
0.0246792
0.024669
0.0246549
0.0246407
0.024629
0.0246219
0.0246198
0.0246224
0.0246292
0.0246401
0.0246546
0.0246721
0.0246916
0.024712
0.0247315
0.024747
0.0247552
0.0247545
0.0247476
0.0247425
0.0247522
0.0247956
0.0248994
0.0250985
0.025432
0.0259356
0.0266281
0.0274918
0.0284455
0.0293252
0.0299109
0.0300335
0.0297209
0.0292404
0.0289189
0.0288743
0.0289591
0.0289489
0.0287465
0.028438
0.0282226
0.0282417
0.0284625
0.0287439
0.0289481
0.0290355
0.0291043
0.0292684
0.0295174
0.0297718
0.0299237
0.0299237
0.04
0.0261819
0.0274065
0.0272647
0.0268113
0.0240937
0.022471
0.0234511
0.0240951
0.0229491
0.0220885
0.0223337
0.022389
0.0219367
0.0216694
0.0217252
0.0216308
0.021491
0.0215048
0.0215927
0.0215902
0.0216263
0.0217163
0.0217792
0.0217842
0.0218147
0.0218463
0.0218461
0.0218294
0.0218308
0.021823
0.0217967
0.0217756
0.0217586
0.0217394
0.0217075
0.0216982
0.0216736
0.0216714
0.0216415
0.021659
0.0216257
0.0216542
0.0216129
0.0216577
0.0216034
0.0216585
0.0215939
0.0216572
0.0215829
0.0216509
0.0215739
0.0216438
0.0215725
0.0216435
0.0215874
0.0216621
0.0216284
0.0217071
0.021702
0.021787
0.0218079
0.0218996
0.0219469
0.0220427
0.0221091
0.0222112
0.0222932
0.0223969
0.0224915
0.0226007
0.0227023
0.0228142
0.0229253
0.0230403
0.0231533
0.0232722
0.0233905
0.0235076
0.0236256
0.0237467
0.0238648
0.0239812
0.0240997
0.0242183
0.0243318
0.0244442
0.0245573
0.0246658
0.0247675
0.0248674
0.0249633
0.0250501
0.025129
0.025203
0.0252667
0.0253185
0.0253608
0.0253924
0.0254102
0.0254176
0.0254147
0.0254006
0.0253782
0.0253493
0.0253115
0.0252679
0.0252209
0.0251679
0.0251095
0.02505
0.0249859
0.0249159
0.024844
0.0247696
0.0246888
0.0246056
0.0245221
0.0244346
0.0243437
0.0242544
0.0241649
0.0240737
0.0239852
0.023902
0.0238217
0.0237461
0.0236788
0.0236195
0.0235664
0.0235209
0.0234835
0.0234513
0.0234213
0.0233933
0.0233662
0.0233364
0.0233024
0.0232664
0.023228
0.0231852
0.0231401
0.0230955
0.0230504
0.0230038
0.0229587
0.0229162
0.0228744
0.0228336
0.0227963
0.0227623
0.0227306
0.022702
0.0226781
0.0226587
0.0226424
0.0226297
0.0226213
0.0226163
0.0226137
0.0226141
0.0226177
0.0226236
0.022631
0.0226405
0.0226518
0.0226639
0.022677
0.0226915
0.022707
0.0227237
0.0227425
0.0227635
0.022787
0.0228135
0.0228436
0.0228776
0.0229156
0.022958
0.0230048
0.0230551
0.0231082
0.0231633
0.0232191
0.0232745
0.0233288
0.0233815
0.0234323
0.0234809
0.0235274
0.0235727
0.0236175
0.023663
0.0237095
0.0237561
0.0238007
0.0238405
0.0238728
0.0238958
0.023908
0.0239081
0.0238954
0.0238697
0.0238325
0.0237868
0.0237366
0.0236853
0.0236354
0.0235882
0.0235446
0.0235061
0.0234745
0.0234517
0.0234378
0.0234316
0.0234309
0.0234347
0.0234441
0.023463
0.0234954
0.0235438
0.0236066
0.0236778
0.0237499
0.023816
0.023874
0.0239272
0.0239833
0.0240519
0.02414
0.0242494
0.0243754
0.0245072
0.0246307
0.0247317
0.0247988
0.0248259
0.0248127
0.0247641
0.0246886
0.0245965
0.0244975
0.0244001
0.0243106
0.0242334
0.0241709
0.0241239
0.0240924
0.0240753
0.0240712
0.0240778
0.0240931
0.0241145
0.0241399
0.0241671
0.0241946
0.0242209
0.0242445
0.0242643
0.0242789
0.024287
0.0242873
0.0242791
0.0242618
0.024236
0.0242024
0.0241629
0.0241192
0.0240732
0.0240267
0.0239807
0.0239361
0.0238932
0.0238524
0.0238138
0.0237778
0.0237451
0.0237162
0.0236918
0.0236724
0.0236578
0.0236474
0.02364
0.0236338
0.0236273
0.0236186
0.0236066
0.0235907
0.0235708
0.0235477
0.0235226
0.0234976
0.0234749
0.0234574
0.0234481
0.0234497
0.0234647
0.0234943
0.023539
0.0235979
0.0236694
0.023751
0.023839
0.0239292
0.0240168
0.0240968
0.0241652
0.0242192
0.0242581
0.0242827
0.0242947
0.0242966
0.0242911
0.0242812
0.02427
0.0242605
0.0242551
0.0242544
0.0242583
0.0242655
0.0242744
0.0242839
0.0242935
0.0243029
0.0243116
0.0243194
0.0243257
0.0243306
0.0243349
0.0243403
0.0243493
0.0243644
0.0243882
0.0244227
0.0244699
0.0245313
0.0246078
0.0246989
0.0248023
0.0249136
0.0250264
0.0251333
0.0252266
0.0253003
0.0253513
0.0253789
0.0253854
0.0253746
0.0253513
0.0253198
0.0252837
0.0252457
0.0252083
0.0251738
0.0251441
0.0251206
0.0251037
0.0250933
0.025088
0.0250849
0.0250806
0.0250727
0.0250597
0.0250413
0.025018
0.024992
0.0249688
0.0249562
0.0249643
0.0250057
0.0250998
0.0252759
0.0255718
0.0260271
0.0266692
0.0274893
0.0284115
0.0292721
0.0298481
0.0299652
0.0296501
0.0291737
0.0288676
0.0288431
0.0289374
0.0289203
0.0286974
0.0283612
0.0281169
0.028115
0.0283199
0.028576
0.0287538
0.0288236
0.0288635
0.0289852
0.029219
0.0294916
0.0296625
0.0296625
0.04
0.0269849
0.0280394
0.0266574
0.0258412
0.025832
0.0267351
0.025997
0.0244997
0.0243462
0.0249833
0.0246596
0.0238826
0.0237435
0.0238611
0.0236355
0.0233427
0.0233289
0.0233326
0.0232564
0.0232508
0.0233558
0.0234091
0.0234422
0.0235147
0.0235955
0.0236223
0.0236479
0.0236878
0.023713
0.023713
0.0237224
0.0237352
0.0237328
0.0237281
0.0237284
0.0237343
0.0237241
0.0237335
0.0237278
0.0237474
0.0237295
0.023763
0.0237368
0.023781
0.0237386
0.0237992
0.0237406
0.0238127
0.0237409
0.0238241
0.0237437
0.0238341
0.0237552
0.0238509
0.0237844
0.023884
0.0238386
0.0239422
0.0239238
0.0240283
0.0240379
0.0241442
0.0241781
0.0242834
0.0243398
0.0244454
0.0245174
0.0246245
0.0247121
0.0248205
0.0249184
0.0250323
0.0251393
0.0252545
0.0253693
0.0254896
0.0256065
0.0257279
0.025851
0.0259737
0.0260947
0.0262195
0.0263438
0.0264646
0.0265847
0.0267063
0.0268231
0.0269346
0.0270444
0.0271515
0.0272504
0.0273429
0.027431
0.0275123
0.0275826
0.027644
0.0276971
0.0277391
0.0277672
0.0277848
0.0277932
0.0277896
0.0277742
0.0277526
0.027723
0.0276827
0.0276365
0.027587
0.027529
0.0274644
0.0273979
0.027326
0.0272457
0.027163
0.027078
0.0269865
0.0268913
0.0267965
0.0266984
0.0265963
0.026495
0.0263951
0.0262943
0.0261958
0.0261034
0.026016
0.0259329
0.0258575
0.0257905
0.0257289
0.0256721
0.0256214
0.0255741
0.025526
0.0254773
0.0254284
0.0253764
0.02532
0.0252622
0.0252041
0.0251437
0.0250826
0.0250242
0.0249675
0.0249109
0.0248568
0.0248062
0.0247574
0.0247099
0.0246655
0.024625
0.0245872
0.0245524
0.0245218
0.0244958
0.0244729
0.0244527
0.0244363
0.0244234
0.0244129
0.024405
0.0244008
0.0243994
0.0243999
0.0244026
0.0244073
0.0244131
0.0244201
0.0244286
0.0244385
0.0244498
0.024463
0.0244785
0.0244962
0.0245165
0.0245404
0.0245682
0.0246001
0.0246362
0.0246762
0.0247189
0.024763
0.0248076
0.0248519
0.0248949
0.0249367
0.0249775
0.0250177
0.0250574
0.0250968
0.025136
0.0251749
0.0252131
0.0252499
0.0252836
0.0253119
0.0253327
0.0253441
0.025345
0.025335
0.0253138
0.025282
0.0252405
0.0251915
0.0251375
0.0250813
0.0250253
0.0249712
0.0249208
0.0248754
0.0248368
0.0248059
0.0247827
0.0247662
0.0247551
0.0247489
0.0247495
0.0247603
0.0247848
0.0248246
0.0248777
0.0249389
0.025001
0.0250581
0.0251083
0.0251545
0.0252035
0.0252638
0.0253414
0.025438
0.0255491
0.0256647
0.0257716
0.0258567
0.0259094
0.025924
0.0259001
0.0258427
0.0257597
0.0256607
0.0255552
0.0254513
0.0253552
0.0252713
0.0252018
0.0251478
0.0251088
0.0250835
0.0250699
0.0250654
0.0250678
0.0250745
0.0250838
0.0250942
0.0251048
0.025115
0.025124
0.0251311
0.025135
0.0251343
0.0251275
0.0251132
0.0250905
0.0250592
0.0250199
0.0249736
0.0249221
0.0248669
0.0248095
0.0247507
0.0246912
0.0246314
0.0245714
0.024512
0.0244541
0.0243992
0.0243491
0.0243054
0.0242693
0.0242413
0.0242212
0.0242077
0.0241989
0.024193
0.0241877
0.0241815
0.0241731
0.0241618
0.0241474
0.0241299
0.0241103
0.0240901
0.0240712
0.0240566
0.0240491
0.0240514
0.0240657
0.0240931
0.0241335
0.0241861
0.0242488
0.0243185
0.024391
0.0244611
0.0245234
0.0245734
0.0246082
0.0246269
0.0246304
0.0246206
0.0246002
0.0245719
0.0245395
0.0245067
0.0244775
0.0244551
0.0244409
0.0244346
0.0244344
0.0244381
0.0244439
0.0244504
0.0244569
0.0244628
0.0244673
0.0244697
0.0244699
0.0244689
0.0244688
0.0244723
0.0244821
0.0245007
0.0245297
0.0245706
0.0246246
0.0246924
0.0247739
0.0248671
0.0249679
0.0250704
0.0251672
0.0252509
0.0253159
0.0253591
0.0253802
0.0253815
0.0253665
0.0253398
0.0253053
0.0252662
0.0252249
0.0251833
0.0251436
0.0251081
0.0250793
0.0250589
0.0250471
0.0250419
0.0250387
0.0250317
0.0250164
0.0249919
0.0249607
0.0249281
0.0249005
0.0248852
0.0248888
0.0249169
0.0249758
0.0250783
0.0252498
0.0255281
0.0259564
0.0265678
0.0273609
0.028266
0.0291232
0.0297114
0.0298546
0.0295751
0.0291363
0.0288628
0.0288625
0.0289731
0.0289733
0.0287744
0.0284612
0.0282214
0.0281992
0.0283754
0.0286063
0.0287712
0.0288497
0.0289077
0.0290387
0.0292659
0.0295057
0.0296544
0.0296544
0.04
0.0249717
0.0254393
0.026609
0.0273172
0.0270942
0.0266377
0.0259117
0.0261784
0.0264983
0.0259229
0.02522
0.0253288
0.0254826
0.0250944
0.0247105
0.0247018
0.0246828
0.0244731
0.0243716
0.0244234
0.024448
0.0244354
0.0245077
0.024603
0.0246521
0.0246917
0.0247635
0.0248142
0.0248363
0.0248634
0.0248999
0.0249158
0.0249229
0.0249393
0.0249529
0.0249585
0.0249617
0.0249785
0.0249789
0.0249937
0.024987
0.0250147
0.0249919
0.025029
0.0249926
0.0250455
0.0249886
0.0250597
0.0249875
0.0250735
0.0249898
0.0250899
0.0250036
0.0251133
0.0250368
0.0251526
0.0250953
0.0252144
0.0251819
0.0252995
0.0252947
0.0254083
0.0254269
0.0255364
0.0255777
0.0256818
0.0257414
0.025846
0.0259209
0.0260252
0.0261154
0.0262239
0.0263227
0.0264359
0.0265457
0.0266608
0.0267754
0.0268974
0.027017
0.0271379
0.0272621
0.0273883
0.0275105
0.0276336
0.0277587
0.0278804
0.0279959
0.0281117
0.0282256
0.0283313
0.0284308
0.0285297
0.0286216
0.0287032
0.0287796
0.0288504
0.028908
0.0289549
0.0289938
0.0290199
0.0290323
0.0290368
0.0290302
0.029011
0.0289841
0.0289499
0.0289045
0.0288528
0.0287967
0.0287319
0.0286599
0.028585
0.0285029
0.0284132
0.0283216
0.028227
0.0281261
0.0280235
0.0279206
0.0278134
0.0277035
0.0275955
0.0274881
0.027381
0.0272783
0.0271817
0.0270896
0.0270027
0.0269227
0.0268489
0.026779
0.0267123
0.0266488
0.0265865
0.0265221
0.0264559
0.026389
0.0263196
0.026247
0.0261745
0.0261039
0.0260332
0.0259636
0.0258986
0.0258369
0.0257764
0.0257186
0.0256648
0.0256131
0.0255624
0.0255148
0.0254711
0.0254304
0.0253922
0.0253578
0.0253277
0.0253002
0.0252749
0.0252531
0.0252349
0.0252194
0.0252069
0.0251985
0.025193
0.0251893
0.0251878
0.0251884
0.0251901
0.0251932
0.0251982
0.0252046
0.0252124
0.0252217
0.0252327
0.0252454
0.0252607
0.0252797
0.0253031
0.0253308
0.0253624
0.0253968
0.0254326
0.0254684
0.0255034
0.0255375
0.0255709
0.025604
0.025638
0.0256729
0.0257085
0.0257439
0.0257782
0.0258105
0.0258397
0.0258647
0.0258838
0.025895
0.025897
0.0258893
0.025872
0.0258456
0.0258109
0.0257685
0.0257192
0.0256646
0.0256067
0.025548
0.0254906
0.0254366
0.0253874
0.0253443
0.0253077
0.0252776
0.0252532
0.0252342
0.0252211
0.0252158
0.0252213
0.0252404
0.025274
0.0253201
0.0253739
0.025429
0.0254805
0.0255264
0.0255688
0.0256136
0.0256679
0.0257372
0.0258229
0.0259212
0.0260232
0.0261172
0.026191
0.0262346
0.0262425
0.0262142
0.0261539
0.0260691
0.0259686
0.0258615
0.0257556
0.0256571
0.0255704
0.0254981
0.0254409
0.0253983
0.0253688
0.0253497
0.0253385
0.0253326
0.0253299
0.025329
0.0253291
0.0253299
0.0253313
0.0253328
0.0253337
0.0253327
0.0253281
0.0253181
0.0253012
0.0252762
0.0252428
0.0252014
0.0251531
0.025099
0.0250406
0.0249787
0.0249141
0.0248469
0.0247774
0.024706
0.0246337
0.0245621
0.0244937
0.0244309
0.0243762
0.0243315
0.0242976
0.0242744
0.0242604
0.0242539
0.0242526
0.0242547
0.0242583
0.0242621
0.0242651
0.0242662
0.0242647
0.0242601
0.0242528
0.0242439
0.0242355
0.0242302
0.0242306
0.0242392
0.0242576
0.0242866
0.0243262
0.0243753
0.0244316
0.0244909
0.0245484
0.0245985
0.0246364
0.0246591
0.0246656
0.0246566
0.0246339
0.0245997
0.0245573
0.0245106
0.0244642
0.0244231
0.0243914
0.0243709
0.0243616
0.0243614
0.0243677
0.0243778
0.0243898
0.0244022
0.0244139
0.0244237
0.0244308
0.0244351
0.0244377
0.0244409
0.0244476
0.0244607
0.0244822
0.0245135
0.0245557
0.0246095
0.0246757
0.0247542
0.0248436
0.0249403
0.0250389
0.0251325
0.0252138
0.0252774
0.0253203
0.0253425
0.025346
0.0253344
0.0253115
0.0252806
0.0252442
0.0252044
0.0251633
0.0251237
0.0250887
0.0250613
0.0250435
0.025035
0.0250326
0.0250305
0.0250219
0.0250024
0.0249718
0.0249345
0.0248982
0.0248726
0.0248672
0.0248885
0.0249387
0.025018
0.0251316
0.0252984
0.0255552
0.0259509
0.0265274
0.0272914
0.0281793
0.0290335
0.0296305
0.0297917
0.0295387
0.0291356
0.0289011
0.0289381
0.0290811
0.0291056
0.0289199
0.0286074
0.0283551
0.0283052
0.0284513
0.0286664
0.0288184
0.0288741
0.0289076
0.0290166
0.0292209
0.0294508
0.0296047
0.0296047
0.04
0.0250276
0.025713
0.026148
0.0262795
0.026268
0.0263667
0.0267225
0.0269547
0.0262839
0.0259575
0.0263559
0.0264413
0.0258652
0.0256026
0.0257647
0.0256771
0.025319
0.0251877
0.0252357
0.0251561
0.025052
0.0250955
0.0251777
0.0251904
0.0252276
0.0253163
0.025377
0.0253993
0.0254452
0.025498
0.0255218
0.0255356
0.0255656
0.025588
0.0255939
0.0256049
0.0256207
0.0256312
0.0256297
0.025645
0.0256412
0.0256556
0.0256344
0.0256641
0.0256262
0.0256681
0.0256135
0.0256785
0.0256044
0.0256898
0.025605
0.0257085
0.0256188
0.0257374
0.0256552
0.0257819
0.0257173
0.0258465
0.0258045
0.0259308
0.025914
0.0260318
0.0260391
0.0261494
0.0261773
0.0262801
0.0263288
0.0264282
0.0264926
0.0265934
0.0266738
0.0267759
0.026869
0.0269776
0.0270794
0.0271916
0.0273047
0.0274219
0.0275379
0.0276614
0.0277854
0.0279081
0.028032
0.02816
0.0282837
0.0284034
0.028524
0.028643
0.0287539
0.0288607
0.0289661
0.0290662
0.0291576
0.0292443
0.0293261
0.0293993
0.0294615
0.0295144
0.0295579
0.0295894
0.0296066
0.029614
0.0296119
0.0295965
0.0295694
0.0295366
0.0294941
0.0294402
0.0293816
0.0293184
0.0292438
0.0291625
0.0290791
0.0289879
0.0288884
0.0287893
0.0286882
0.0285804
0.0284707
0.0283623
0.0282498
0.0281344
0.028022
0.0279123
0.0278034
0.027699
0.0276014
0.0275085
0.0274189
0.0273347
0.0272559
0.027179
0.0271025
0.027028
0.0269538
0.0268764
0.0267967
0.0267174
0.0266373
0.0265552
0.0264753
0.0263998
0.0263263
0.0262551
0.0261896
0.0261287
0.0260695
0.0260125
0.0259594
0.0259089
0.0258593
0.0258119
0.0257687
0.0257285
0.0256901
0.0256545
0.0256232
0.0255943
0.0255671
0.0255435
0.0255242
0.0255079
0.0254945
0.0254851
0.0254785
0.0254734
0.0254705
0.02547
0.0254709
0.0254734
0.0254777
0.0254832
0.0254893
0.0254962
0.0255045
0.0255145
0.0255277
0.0255454
0.0255679
0.0255944
0.0256237
0.0256546
0.0256855
0.0257153
0.0257439
0.025772
0.0258006
0.0258308
0.0258632
0.0258973
0.0259314
0.0259636
0.0259924
0.0260168
0.0260359
0.0260483
0.0260527
0.026048
0.026034
0.0260117
0.0259825
0.0259473
0.0259066
0.0258602
0.0258085
0.0257525
0.0256947
0.0256376
0.0255835
0.0255342
0.0254901
0.0254513
0.0254175
0.0253888
0.0253655
0.0253491
0.0253418
0.0253461
0.0253638
0.0253949
0.0254372
0.0254865
0.0255375
0.0255861
0.0256306
0.0256727
0.0257171
0.0257695
0.0258344
0.0259132
0.0260024
0.0260945
0.0261788
0.0262442
0.0262817
0.0262858
0.026256
0.0261958
0.0261121
0.0260132
0.0259078
0.0258035
0.0257062
0.0256205
0.0255486
0.0254916
0.0254485
0.0254177
0.0253965
0.0253823
0.0253727
0.0253659
0.025361
0.0253573
0.0253546
0.0253528
0.0253513
0.0253491
0.0253448
0.0253369
0.0253238
0.0253042
0.0252771
0.0252425
0.0252006
0.0251522
0.0250983
0.0250397
0.024977
0.0249105
0.0248404
0.0247669
0.0246907
0.0246131
0.024536
0.0244621
0.0243945
0.0243357
0.0242879
0.024252
0.024228
0.0242147
0.0242104
0.0242134
0.0242219
0.0242347
0.0242507
0.0242688
0.0242876
0.0243056
0.0243213
0.0243337
0.0243427
0.0243491
0.0243544
0.0243609
0.0243707
0.0243857
0.0244073
0.0244366
0.0244732
0.0245159
0.0245615
0.0246056
0.0246429
0.024669
0.0246806
0.0246767
0.0246575
0.0246244
0.0245796
0.024526
0.0244677
0.0244101
0.024359
0.024319
0.024293
0.0242811
0.0242814
0.0242906
0.0243056
0.0243238
0.0243432
0.0243621
0.0243791
0.0243933
0.0244043
0.0244135
0.0244228
0.0244352
0.0244533
0.0244793
0.0245145
0.0245597
0.0246155
0.0246824
0.02476
0.0248468
0.0249397
0.0250339
0.0251233
0.0252016
0.0252637
0.0253068
0.0253303
0.0253359
0.0253266
0.0253057
0.0252765
0.0252417
0.0252035
0.0251641
0.0251261
0.0250926
0.0250666
0.0250499
0.025042
0.0250393
0.0250353
0.0250231
0.0249986
0.0249627
0.0249213
0.0248844
0.024863
0.0248669
0.0249014
0.0249663
0.0250574
0.0251751
0.0253342
0.0255699
0.025934
0.0264768
0.0272129
0.028084
0.0289349
0.0295417
0.0297249
0.029503
0.0291386
0.0289438
0.0290117
0.0291768
0.0292208
0.0290551
0.0287555
0.0285033
0.0284368
0.0285468
0.0287227
0.0288501
0.0288966
0.0289267
0.0290221
0.0292014
0.0294125
0.0295639
0.0295639
0.04
0.0256803
0.0261895
0.0258206
0.0261304
0.0264508
0.0265389
0.0264809
0.0263504
0.0263888
0.0267381
0.0265949
0.0261778
0.0261685
0.0264001
0.0262077
0.0258549
0.0258009
0.0258455
0.0256739
0.0254978
0.0255108
0.025545
0.0255026
0.025507
0.0255876
0.0256365
0.0256532
0.0257009
0.0257607
0.0257856
0.0258047
0.0258407
0.0258686
0.0258765
0.02589
0.0259099
0.0259178
0.0259215
0.0259271
0.0259378
0.0259264
0.025935
0.0259155
0.0259332
0.0258919
0.0259286
0.0258732
0.0259303
0.0258575
0.0259428
0.0258574
0.0259637
0.0258759
0.0260005
0.0259174
0.0260527
0.0259859
0.026122
0.0260762
0.0262078
0.0261841
0.0263047
0.026305
0.026414
0.0264337
0.026535
0.0265749
0.0266694
0.0267272
0.0268231
0.0268949
0.0269929
0.0270806
0.0271828
0.0272803
0.0273914
0.0274996
0.0276139
0.0277319
0.0278554
0.0279762
0.0281014
0.0282303
0.0283573
0.02848
0.0286055
0.0287301
0.0288472
0.0289594
0.0290732
0.0291814
0.0292799
0.0293755
0.0294701
0.0295536
0.029627
0.0296965
0.0297562
0.0297992
0.0298331
0.0298578
0.029866
0.0298615
0.0298502
0.0298255