# vtk DataFile Version 3.0
LBM output step 360
ASCII
DATASET STRUCTURED_POINTS
DIMENSIONS 400 100 1
ORIGIN 0 0 0
SPACING 1 1 1
POINT_DATA 40000
SCALARS velocity_magnitude double 1
LOOKUP_TABLE default
0
0
0
0
0
0
0
0
0
0
0
0
0
0
0
0
0
0
0
0
0
0
0
0
0
0
0
0
0
0
0
0
0
0
0
0
0
0
0
0
0
0
0
0
0
0
0
0
0
0
0
0
0
0
0
0
0
0
0
0
0
0
0
0
0
0
0
0
0
0
0
0
0
0
0
0
0
0
0
0
0
0
0
0
0
0
0
0
0
0
0
0
0
0
0
0
0
0
0
0
0
0
0
0
0
0
0
0
0
0
0
0
0
0
0
0
0
0
0
0
0
0
0
0
0
0
0
0
0
0
0
0
0
0
0
0
0
0
0
0
0
0
0
0
0
0
0
0
0
0
0
0
0
0
0
0
0
0
0
0
0
0
0
0
0
0
0
0
0
0
0
0
0
0
0
0
0
0
0
0
0
0
0
0
0
0
0
0
0
0
0
0
0
0
0
0
0
0
0
0
0
0
0
0
0
0
0
0
0
0
0
0
0
0
0
0
0
0
0
0
0
0
0
0
0
0
0
0
0
0
0
0
0
0
0
0
0
0
0
0
0
0
0
0
0
0
0
0
0
0
0
0
0
0
0
0
0
0
0
0
0
0
0
0
0
0
0
0
0
0
0
0
0
0
0
0
0
0
0
0
0
0
0
0
0
0
0
0
0
0
0
0
0
0
0
0
0
0
0
0
0
0
0
0
0
0
0
0
0
0
0
0
0
0
0
0
0
0
0
0
0
0
0
0
0
0
0
0
0
0
0
0
0
0
0
0
0
0
0
0
0
0
0
0
0
0
0
0
0
0
0
0
0
0
0
0
0
0
0
0
0
0
0
0
0
0
0
0
0
0
0
0
0
0
0
0
0
0
0
0
0
0
0
0
0
0
0
0
0
0
0
0
0
0
0
0
0
0
0
0
0.04
0.0124385
0.00742735
0.0142333
0.0160745
0.0153465
0.0126713
0.0127292
0.0132331
0.0138977
0.0142605
0.0148797
0.0150191
0.0150173
0.0148829
0.0147124
0.0143481
0.0139898
0.0136914
0.0133713
0.0130797
0.0128016
0.0126442
0.0124715
0.0124239
0.0123807
0.0124067
0.0123593
0.0123286
0.0122427
0.012167
0.0120772
0.0120248
0.0119774
0.0119402
0.0119071
0.0118892
0.0118825
0.011879
0.0118646
0.0118141
0.011716
0.0115729
0.0114057
0.0112315
0.0110684
0.0109211
0.0107907
0.0106747
0.0105775
0.0105005
0.0104454
0.010409
0.0103842
0.0103606
0.0103375
0.0103163
0.0102973
0.0102829
0.0102772
0.0102767
0.0102784
0.0102846
0.0102966
0.0103119
0.0103318
0.0103566
0.010382
0.010407
0.0104344
0.0104635
0.0104932
0.0105258
0.0105604
0.0105942
0.0106285
0.0106654
0.010703
0.0107415
0.0107833
0.0108275
0.0108711
0.0109156
0.010962
0.0110083
0.0110527
0.0110982
0.011144
0.0111882
0.01123
0.0112716
0.011312
0.0113499
0.0113856
0.011421
0.0114543
0.011485
0.0115141
0.0115423
0.0115679
0.011592
0.0116154
0.0116376
0.0116571
0.0116764
0.0116952
0.0117123
0.0117284
0.0117452
0.0117612
0.0117762
0.0117922
0.0118094
0.0118256
0.0118425
0.0118616
0.0118813
0.011901
0.0119234
0.0119471
0.0119703
0.0119951
0.0120228
0.0120502
0.0120778
0.0121088
0.0121415
0.0121739
0.0122092
0.0122486
0.0122886
0.0123294
0.0123735
0.0124183
0.012461
0.0125052
0.012553
0.012601
0.0126489
0.0126997
0.0127523
0.0128037
0.012858
0.0129199
0.0129876
0.0130595
0.0131383
0.0132219
0.0133065
0.0133941
0.0134864
0.013578
0.013665
0.0137484
0.0138265
0.013897
0.013964
0.0140317
0.0140995
0.014168
0.0142423
0.0143218
0.0144014
0.0144836
0.0145783
0.0146876
0.0148037
0.0149244
0.0150528
0.0151799
0.015285
0.0153659
0.0154518
0.0155672
0.0156945
0.0157964
0.0158668
0.015934
0.0160121
0.0160863
0.0161653
0.0163071
0.0165532
0.0168511
0.0170911
0.0172262
0.0173067
0.0173712
0.0173254
0.0169919
0.0163187
0.0155072
0.014875
0.0145793
0.0144896
0.0143476
0.0140535
0.0137986
0.0139218
0.0145968
0.0155931
0.0163473
0.0164066
0.015927
0.0157411
0.0168523
0.0196349
0.023175
0.0253809
0.024337
0.0199622
0.0140724
0.00873598
0.00493256
0.00260781
0.00131769
0.000644159
0.000306656
0.000142614
6.49015e-05
2.89349e-05
1.26442e-05
5.4257e-06
2.30134e-06
9.71873e-07
4.05467e-07
1.70685e-07
7.74828e-08
3.5222e-08
2.27724e-08
8.8264e-09
1.60003e-08
1.54201e-08
7.0405e-09
1.22982e-08
3.32484e-09
8.69897e-09
2.51355e-09
5.2609e-09
5.36735e-09
4.2662e-10
5.34527e-09
3.20763e-09
2.19409e-09
2.90805e-09
4.48341e-10
1.52087e-09
4.03481e-10
4.43456e-10
1.63297e-10
1.59071e-10
8.63787e-11
2.70091e-11
1.25474e-11
2.53266e-11
1.80993e-11
5.24327e-12
1.05858e-11
4.41027e-12
3.38016e-12
3.54038e-12
2.57526e-12
4.69578e-13
3.84311e-12
6.10021e-12
7.30869e-12
8.18449e-12
8.78895e-12
9.06996e-12
9.14317e-12
8.84423e-12
8.06062e-12
7.02435e-12
5.96462e-12
4.92473e-12
3.91874e-12
3.01616e-12
2.2483e-12
1.60397e-12
1.07823e-12
6.80947e-13
3.82958e-13
1.85211e-13
1.30329e-13
1.71727e-13
1.86276e-13
1.8649e-13
1.60946e-13
1.31043e-13
1.03298e-13
8.60175e-14
6.24414e-14
3.79773e-14
1.78722e-14
1.25163e-14
8.45387e-15
5.36248e-15
1.54064e-15
3.13472e-15
2.3894e-15
2.78183e-15
2.81378e-15
2.90511e-15
2.78052e-15
2.53966e-15
2.44933e-15
2.655e-15
2.33574e-15
2.10956e-15
2.22701e-15
2.46452e-15
2.02771e-15
2.12983e-15
1.91449e-15
2.17369e-15
1.76794e-15
2.07314e-15
1.9145e-15
1.93987e-15
1.82463e-15
1.46443e-15
1.58279e-15
1.7515e-15
1.4394e-15
1.68714e-15
1.42719e-15
1.46531e-15
1.22613e-15
1.29303e-15
6.89478e-16
7.78533e-16
1.12862e-15
1.24995e-15
1.10154e-15
1.13138e-15
9.57875e-16
9.07113e-16
9.54609e-16
7.63917e-16
6.78745e-16
4.72304e-16
6.95319e-16
8.97293e-16
8.97058e-16
7.75893e-16
6.10011e-16
3.36983e-16
1.50791e-16
9.71445e-17
1.09714e-17
2.79716e-17
9.81308e-18
2.94392e-17
5.2845e-17
3.46945e-18
1.09714e-17
1.96262e-17
4.90654e-18
9.81308e-18
9.81308e-18
9.81308e-18
0
0
0
0
0
0
0
0
0
0
0
0
0
0
0
0
0
0
0
0
0
0
0
0
0
0
0
0
0
0
0
0
0
0
0
0
0
0
0
0.04
0.0197534
0.0205267
0.0182462
0.0119912
0.0123516
0.0156508
0.0164273
0.0155415
0.0160499
0.0171908
0.0178669
0.0182005
0.0185913
0.0186572
0.0184495
0.0182846
0.018139
0.0179261
0.0176297
0.0175156
0.0173366
0.0172956
0.0172045
0.0173514
0.0173783
0.0175504
0.017599
0.0177472
0.0177555
0.017847
0.0178824
0.0179818
0.0180391
0.0181435
0.0182359
0.018355
0.0184715
0.0185998
0.018701
0.0187641
0.018779
0.0187552
0.0187007
0.0186328
0.0185636
0.0184986
0.0184408
0.0183951
0.018365
0.0183526
0.0183571
0.0183732
0.018395
0.0184197
0.0184449
0.0184701
0.0184982
0.0185291
0.018561
0.0185965
0.0186366
0.0186785
0.0187243
0.0187778
0.0188327
0.0188871
0.0189467
0.0190098
0.01907
0.0191334
0.019204
0.0192726
0.0193379
0.0194101
0.0194851
0.0195557
0.0196294
0.0197115
0.0197913
0.0198678
0.0199504
0.0200367
0.0201173
0.0201977
0.0202828
0.0203659
0.0204425
0.0205198
0.0205976
0.02067
0.0207375
0.0208051
0.0208694
0.0209275
0.0209822
0.0210352
0.0210822
0.0211248
0.021165
0.0212009
0.0212314
0.0212598
0.0212838
0.0213029
0.0213202
0.0213351
0.0213447
0.0213533
0.0213613
0.0213646
0.0213664
0.0213711
0.0213723
0.0213699
0.0213724
0.021376
0.0213739
0.0213751
0.0213824
0.0213852
0.0213863
0.0213953
0.0214051
0.0214103
0.0214206
0.0214374
0.021451
0.0214644
0.0214851
0.0215081
0.0215287
0.0215534
0.0215834
0.0216118
0.021639
0.0216704
0.0217039
0.0217362
0.0217705
0.0218093
0.0218497
0.0218912
0.021938
0.0219922
0.0220509
0.0221138
0.0221819
0.0222529
0.0223232
0.0223938
0.0224649
0.0225329
0.0225958
0.0226545
0.0227076
0.0227535
0.0227955
0.0228371
0.022879
0.0229244
0.0229765
0.0230323
0.0230883
0.0231493
0.0232189
0.0232909
0.023362
0.0234389
0.0235203
0.0235876
0.0236293
0.0236624
0.023707
0.0237517
0.0237707
0.023767
0.0237702
0.0237913
0.0238096
0.0238212
0.0238697
0.0239922
0.0241459
0.024232
0.0242032
0.0241084
0.0239967
0.0237958
0.0233441
0.0225818
0.0216809
0.020937
0.0205078
0.0202729
0.019979
0.0195282
0.019123
0.0191126
0.0196524
0.0204752
0.0210042
0.0208136
0.0200982
0.0196856
0.0205236
0.022945
0.0260531
0.0277949
0.026262
0.0213757
0.0150002
0.00927658
0.00521733
0.00274694
0.00138187
0.000672164
0.000318044
0.000146775
6.60969e-05
2.90301e-05
1.2424e-05
5.1635e-06
2.07381e-06
8.06902e-07
2.97474e-07
1.00821e-07
2.29363e-08
1.26311e-08
1.27919e-08
1.67645e-08
1.39587e-08
8.7027e-09
1.33267e-08
1.70338e-09
7.48163e-09
3.09971e-09
6.40028e-09
7.00769e-09
2.8472e-09
4.70766e-09
2.12842e-09
2.42927e-09
2.81566e-09
1.15696e-09
1.85549e-09
3.79799e-10
9.71179e-10
2.51763e-10
3.12127e-10
4.73119e-11
1.21645e-10
6.83538e-11
3.9615e-11
3.21251e-11
4.23853e-11
4.09804e-11
3.26108e-11
2.9099e-11
2.93312e-11
2.72699e-11
2.14021e-11
1.49126e-11
1.06303e-11
8.51532e-12
7.49883e-12
6.64676e-12
5.50845e-12
4.22654e-12
3.35851e-12
3.23669e-12
3.72076e-12
4.35785e-12
4.80579e-12
4.95692e-12
4.87489e-12
4.66058e-12
4.40333e-12
4.11775e-12
3.79471e-12
3.42398e-12
3.0108e-12
2.55768e-12
2.10193e-12
1.68557e-12
1.33171e-12
1.03031e-12
7.74735e-13
5.64986e-13
4.00768e-13
2.70524e-13
1.7411e-13
1.0677e-13
6.63871e-14
3.96661e-14
2.35477e-14
1.1939e-14
5.99193e-15
4.69001e-15
4.82121e-15
3.97845e-15
3.82905e-15
3.92483e-15
3.85914e-15
3.15624e-15
3.59505e-15
3.44563e-15
3.16981e-15
2.78985e-15
3.10652e-15
3.1347e-15
3.02683e-15
2.829e-15
2.88991e-15
2.7371e-15
2.63696e-15
2.66966e-15
2.69629e-15
2.41462e-15
2.10813e-15
2.31563e-15
2.13904e-15
2.29158e-15
2.36873e-15
1.90141e-15
2.12262e-15
1.67399e-15
1.81011e-15
1.52313e-15
1.41051e-15
1.35983e-15
1.17094e-15
1.45732e-15
1.30151e-15
1.26692e-15
1.44523e-15
1.24584e-15
9.36937e-16
8.2332e-16
8.25728e-16
6.63971e-16
7.43118e-16
8.69365e-16
9.71073e-16
8.98667e-16
5.15829e-16
3.81781e-16
1.44597e-16
3.92523e-17
4.38854e-17
2.77556e-17
4.56334e-17
3.27307e-17
1.73472e-17
7.75792e-18
3.10317e-17
2.5258e-17
4.90654e-18
1.38778e-17
9.81308e-18
9.81308e-18
0
0
0
0
0
0
0
0
0
0
0
0
0
0
0
0
0
0
0
0
0
0
0
0
0
0
0
0
0
0
0
0
0
0
0
0
0
0
0
0.04
0.0215756
0.0192181
0.0160131
0.017304
0.0194713
0.0183441
0.0171988
0.0181817
0.0194623
0.0197201
0.020052
0.0207377
0.0211888
0.0212386
0.0212922
0.0213394
0.0211974
0.0210502
0.0209099
0.020874
0.0207018
0.0207731
0.0207703
0.0210011
0.0210463
0.0213288
0.0213963
0.0216169
0.0216516
0.0218443
0.0219016
0.0220611
0.0221441
0.022307
0.0224265
0.0225986
0.0227523
0.0229139
0.0230292
0.0231162
0.0231587
0.023171
0.0231562
0.023128
0.0230885
0.0230463
0.0230102
0.0229873
0.0229811
0.0229922
0.0230144
0.0230417
0.0230746
0.0231117
0.0231499
0.0231914
0.0232364
0.0232785
0.0233191
0.0233648
0.0234129
0.0234626
0.0235196
0.0235804
0.0236385
0.0237
0.023768
0.0238354
0.0239041
0.0239807
0.0240575
0.02413
0.0242066
0.0242887
0.0243681
0.0244491
0.0245378
0.0246269
0.0247117
0.0248007
0.0248941
0.0249837
0.0250717
0.025165
0.0252567
0.025342
0.0254265
0.0255126
0.0255929
0.0256678
0.0257412
0.0258124
0.0258764
0.0259352
0.0259907
0.0260417
0.0260856
0.0261241
0.0261585
0.0261872
0.0262076
0.0262236
0.0262359
0.0262403
0.0262378
0.0262344
0.0262256
0.0262079
0.0261888
0.0261696
0.0261418
0.0261105
0.0260826
0.0260502
0.0260112
0.0259762
0.0259421
0.0259016
0.0258625
0.0258287
0.0257912
0.0257516
0.0257178
0.0256849
0.0256487
0.0256161
0.0255879
0.0255572
0.0255258
0.0254998
0.0254755
0.0254501
0.0254286
0.025411
0.025392
0.0253722
0.0253546
0.0253387
0.0253236
0.0253111
0.0253018
0.0252949
0.0252896
0.0252872
0.0252897
0.0252977
0.0253085
0.0253211
0.0253349
0.0253468
0.0253557
0.0253638
0.0253709
0.0253738
0.0253706
0.0253618
0.025348
0.02533
0.0253113
0.0252964
0.0252868
0.0252793
0.0252709
0.0252641
0.025261
0.0252581
0.0252537
0.0252553
0.0252668
0.0252735
0.025257
0.0252196
0.0251762
0.025127
0.0250612
0.024989
0.0249414
0.0249259
0.0249102
0.0248692
0.0248275
0.0248236
0.0248362
0.0247864
0.0246304
0.0244178
0.0242169
0.0239885
0.0235865
0.0229195
0.0220936
0.021354
0.0208599
0.0205281
0.0201374
0.0195998
0.0191143
0.0190196
0.0194533
0.0201419
0.0205505
0.0203167
0.0196269
0.0192108
0.0199294
0.0221459
0.0251168
0.0269386
0.0256961
0.0211445
0.0149901
0.00934826
0.00529195
0.00280091
0.00141578
0.000692195
0.000329514
0.000153234
6.97345e-05
3.10827e-05
1.35804e-05
5.83499e-06
2.47265e-06
1.02987e-06
4.3324e-07
1.92434e-07
8.35888e-08
2.36592e-08
1.99551e-08
1.44097e-08
1.31658e-08
8.6281e-09
4.88502e-09
8.47741e-09
5.1824e-09
5.53745e-09
7.68694e-09
2.0576e-09
5.40437e-09
4.61158e-10
2.14567e-09
1.14149e-09
1.97216e-09
8.95825e-10
1.40149e-09
6.85361e-10
6.02916e-10
3.51086e-10
1.85846e-10
1.37429e-10
5.22461e-11
5.23254e-11
2.62409e-11
3.84666e-11
2.87833e-11
2.43877e-11
2.44969e-11
2.93132e-11
2.97036e-11
2.43555e-11
1.72569e-11
1.13859e-11
7.39706e-12
4.77225e-12
2.96649e-12
1.35848e-12
6.41393e-13
2.09444e-12
3.00389e-12
3.00495e-12
2.18573e-12
1.05356e-12
1.61474e-13
6.28605e-13
1.08418e-12
1.42884e-12
1.71676e-12
1.94489e-12
2.09391e-12
2.12425e-12
2.02271e-12
1.81444e-12
1.55956e-12
1.30521e-12
1.07577e-12
8.70308e-13
6.84183e-13
5.11772e-13
3.61794e-13
2.44196e-13
1.62343e-13
1.06034e-13
6.65691e-14
3.78134e-14
1.94962e-14
1.02476e-14
7.19395e-15
4.06088e-15
3.54973e-15
4.02235e-15
3.81451e-15
3.43538e-15
3.36423e-15
3.19239e-15
3.36974e-15
3.11909e-15
2.99819e-15
2.80401e-15
2.9418e-15
3.00948e-15
2.90654e-15
2.92054e-15
2.69027e-15
2.63551e-15
2.32567e-15
2.67991e-15
2.60685e-15
2.35294e-15
2.17091e-15
2.16672e-15
2.23003e-15
2.20536e-15
2.10257e-15
2.04705e-15
1.78073e-15
1.64545e-15
1.69053e-15
1.65066e-15
1.50285e-15
1.32896e-15
1.26511e-15
1.35904e-15
1.29482e-15
1.28773e-15
1.43452e-15
1.48268e-15
1.05499e-15
9.35143e-16
8.05368e-16
7.88969e-16
8.43818e-16
8.8477e-16
9.74921e-16
7.65483e-16
6.01026e-16
2.11892e-16
1.23055e-16
8.84539e-17
2.64225e-17
8.50545e-17
4.90654e-18
1.25093e-17
2.19427e-17
9.81308e-18
3.46945e-18
9.81308e-18
2.19427e-17
9.81308e-18
9.81308e-18
9.81308e-18
0
0
0
0
0
0
0
0
0
0
0
0
0
0
0
0
0
0
0
0
0
0
0
0
0
0
0
0
0
0
0
0
0
0
0
0
0
0
0
0.04
0.0235638
0.0248723
0.0244884
0.0238091
0.0210765
0.0197354
0.0210796
0.0219308
0.0212494
0.0210669
0.0219838
0.0225484
0.0226071
0.0228118
0.0231731
0.0232348
0.0231285
0.023142
0.0230839
0.0230217
0.0229109
0.0230881
0.0231086
0.0233639
0.0234363
0.0237671
0.0237995
0.0240584
0.0241028
0.0243408
0.0243776
0.024568
0.024639
0.0248112
0.0249184
0.0251071
0.0252503
0.0253991
0.025492
0.025567
0.0255976
0.0256101
0.0256012
0.0255759
0.0255311
0.0254793
0.0254302
0.0253921
0.0253719
0.0253666
0.0253681
0.025375
0.0253889
0.0254056
0.0254271
0.0254566
0.0254868
0.025513
0.0255419
0.0255731
0.0256037
0.0256397
0.0256818
0.0257227
0.0257657
0.0258153
0.0258657
0.0259172
0.0259769
0.026039
0.0260971
0.0261597
0.0262281
0.0262939
0.026361
0.0264374
0.0265144
0.0265873
0.0266649
0.026748
0.0268258
0.0269022
0.0269852
0.0270676
0.0271422
0.0272179
0.0272965
0.0273689
0.0274346
0.0275018
0.0275667
0.0276234
0.0276753
0.0277265
0.0277708
0.0278077
0.0278411
0.0278692
0.0278881
0.0279024
0.027912
0.027912
0.0279053
0.0278957
0.0278771
0.0278505
0.0278218
0.027787
0.0277429
0.0276978
0.0276502
0.0275933
0.0275347
0.0274787
0.0274148
0.0273466
0.0272839
0.0272186
0.0271466
0.0270795
0.0270167
0.0269483
0.0268803
0.0268193
0.0267571
0.0266911
0.0266297
0.0265719
0.0265104
0.0264497
0.026395
0.0263415
0.0262872
0.0262366
0.0261892
0.0261412
0.0260931
0.0260479
0.0260064
0.025967
0.0259294
0.0258947
0.0258633
0.0258327
0.0258032
0.0257796
0.0257607
0.0257416
0.0257233
0.0257075
0.0256898
0.0256697
0.0256516
0.0256329
0.025607
0.025575
0.025542
0.0255072
0.0254699
0.025436
0.025409
0.0253829
0.0253518
0.0253195
0.0252911
0.0252647
0.0252385
0.0252197
0.0252139
0.0252094
0.0251847
0.025133
0.0250647
0.0249885
0.0249062
0.0248325
0.0247966
0.024804
0.0248168
0.0247941
0.0247407
0.024685
0.0246141
0.0244685
0.0242255
0.0239546
0.023746
0.0235782
0.0233005
0.0227838
0.022085
0.0214266
0.0209784
0.0206736
0.0202887
0.0197199
0.0191684
0.0190047
0.0194053
0.020111
0.0205636
0.0203581
0.0196499
0.0191585
0.0197625
0.0218922
0.024899
0.0269046
0.0258933
0.0214807
0.0153237
0.00959383
0.00544042
0.00287963
0.00145377
0.000709113
0.000336395
0.000155625
7.02885e-05
3.09772e-05
1.32908e-05
5.55201e-06
2.26238e-06
8.80359e-07
3.17855e-07
1.02095e-07
4.12305e-08
2.93641e-08
7.70694e-09
1.38729e-08
1.40153e-08
1.34683e-08
1.03807e-08
7.37918e-09
7.28763e-09
1.04169e-08
3.72568e-09
6.72666e-09
2.21214e-09
3.42185e-09
5.54044e-10
4.26642e-09
1.45849e-09
2.59359e-09
1.48432e-09
9.60848e-10
7.24728e-10
2.26787e-10
2.53439e-10
3.20584e-11
7.08788e-11
7.29422e-12
3.20014e-11
1.04856e-11
1.28002e-11
1.04267e-11
2.11312e-11
2.39946e-11
2.10026e-11
1.647e-11
1.18735e-11
7.14343e-12
2.63211e-12
7.13911e-13
2.48206e-12
3.97674e-12
5.64592e-12
7.34942e-12
8.30352e-12
8.03484e-12
6.84531e-12
5.33485e-12
3.92073e-12
2.77386e-12
1.85829e-12
1.07009e-12
3.50821e-13
2.77377e-13
7.65848e-13
1.07933e-12
1.21693e-12
1.21449e-12
1.12337e-12
9.99964e-13
8.7437e-13
7.42194e-13
5.97385e-13
4.50863e-13
3.25729e-13
2.29436e-13
1.58179e-13
1.02772e-13
6.12861e-14
3.43838e-14
1.78362e-14
8.80413e-15
6.38888e-15
3.92258e-15
2.78252e-15
3.24402e-15
3.57918e-15
3.42779e-15
2.97332e-15
3.23745e-15
3.28588e-15
3.02075e-15
3.03007e-15
2.78768e-15
2.80035e-15
2.92823e-15
2.60615e-15
2.95656e-15
2.59405e-15
2.71683e-15
2.26085e-15
2.43529e-15
2.65406e-15
2.42489e-15
2.15854e-15
2.06029e-15
2.20337e-15
2.24222e-15
2.06489e-15
1.8436e-15
1.81238e-15
1.69051e-15
1.8076e-15
1.92874e-15
1.50075e-15
1.22913e-15
1.41266e-15
1.13555e-15
1.01151e-15
1.23259e-15
1.24612e-15
1.52341e-15
1.19354e-15
7.10686e-16
9.64644e-16
7.43855e-16
5.86993e-16
8.7224e-16
1.00497e-15
9.27303e-16
5.21815e-16
2.77143e-16
1.18165e-16
7.35163e-17
3.29141e-17
4.16334e-17
2.19427e-17
3.27307e-17
2.64225e-17
2.77556e-17
2.19427e-17
1.38778e-17
9.81308e-18
1.38778e-17
9.81308e-18
9.81308e-18
0
0
0
0
0
0
0
0
0
0
0
0
0
0
0
0
0
0
0
0
0
0
0
0
0
0
0
0
0
0
0
0
0
0
0
0
0
0
0
0.04
0.0240368
0.0252062
0.0238657
0.0230662
0.0231101
0.0241399
0.0235694
0.0222966
0.0224426
0.0232874
0.02325
0.0229156
0.0233136
0.0238584
0.0239727
0.0239662
0.0241092
0.0241691
0.0240234
0.0240243
0.0240263
0.0241758
0.0241672
0.0244763
0.0245457
0.0248412
0.0248537
0.025162
0.0251865
0.0254288
0.0254555
0.0256615
0.0256978
0.0258729
0.0259777
0.0261662
0.0262796
0.02641
0.0264788
0.0265348
0.0265559
0.0265761
0.0265729
0.0265488
0.0265031
0.026447
0.0263891
0.0263431
0.0263124
0.0262898
0.0262731
0.0262634
0.0262572
0.0262567
0.0262685
0.0262854
0.0263
0.0263165
0.026335
0.0263506
0.0263696
0.0263948
0.0264196
0.0264457
0.0264781
0.0265114
0.0265457
0.0265879
0.0266331
0.0266761
0.0267241
0.026778
0.0268296
0.0268837
0.0269464
0.0270105
0.0270715
0.0271384
0.0272098
0.027277
0.0273429
0.0274157
0.0274873
0.0275519
0.0276183
0.0276894
0.0277534
0.0278117
0.0278728
0.0279327
0.0279838
0.0280318
0.0280792
0.0281218
0.0281569
0.0281878
0.0282142
0.0282348
0.0282473
0.0282538
0.0282557
0.0282502
0.0282347
0.0282152
0.028191
0.0281554
0.0281132
0.0280713
0.0280199
0.0279578
0.0278984
0.0278368
0.027762
0.0276874
0.0276182
0.0275399
0.0274564
0.0273807
0.027304
0.0272203
0.0271415
0.0270686
0.0269914
0.0269138
0.0268432
0.0267733
0.0266994
0.026629
0.0265635
0.0264958
0.0264274
0.0263651
0.0263057
0.0262459
0.0261892
0.0261368
0.0260857
0.0260354
0.0259883
0.0259457
0.0259063
0.0258681
0.0258312
0.0257967
0.0257626
0.0257292
0.0257013
0.0256786
0.0256559
0.0256336
0.0256122
0.0255883
0.0255634
0.0255427
0.0255229
0.0254988
0.025473
0.0254461
0.0254129
0.0253752
0.0253435
0.0253194
0.0252949
0.0252684
0.0252443
0.0252191
0.0251864
0.0251551
0.0251406
0.0251379
0.0251221
0.0250774
0.0250093
0.0249303
0.0248526
0.0247989
0.0247953
0.0248362
0.0248706
0.0248449
0.0247574
0.024646
0.0245182
0.0243246
0.0240325
0.0237029
0.023444
0.0232804
0.0231014
0.0227707
0.022283
0.0217787
0.0213821
0.0210447
0.0205994
0.0199938
0.0194416
0.0192824
0.0196482
0.0202656
0.0206139
0.0203481
0.0196413
0.0191635
0.0197215
0.0217257
0.0246001
0.026578
0.0256766
0.0214265
0.0153792
0.00967976
0.00551206
0.00292728
0.00148228
0.000725296
0.000345406
0.000160633
7.30567e-05
3.2541e-05
1.42128e-05
6.07446e-06
2.5494e-06
1.07584e-06
4.56002e-07
1.79297e-07
6.74571e-08
3.65317e-08
2.3508e-08
1.05375e-08
1.46483e-08
5.2128e-09
1.39891e-08
3.46814e-09
1.26516e-08
4.9709e-09
8.01145e-09
2.87598e-09
2.59054e-09
1.00744e-09
2.85093e-09
1.15319e-09
3.41868e-09
2.64053e-10
2.15962e-09
1.89067e-10
9.41411e-10
1.85835e-10
3.20915e-10
8.94287e-11
1.02911e-10
4.62091e-11
3.11995e-11
2.46151e-11
8.81282e-12
2.18004e-11
1.97579e-11
1.93566e-11
1.81372e-11
1.66487e-11
1.26258e-11
6.91545e-12
2.65679e-12
1.46202e-13
1.62921e-12
3.30692e-12
5.55292e-12
7.57533e-12
8.50471e-12
8.17624e-12
6.98384e-12
5.48713e-12
4.12985e-12
3.0532e-12
2.16872e-12
1.34848e-12
5.64763e-13
1.53936e-13
6.55479e-13
9.86084e-13
1.13315e-12
1.13954e-12
1.06714e-12
9.72906e-13
8.66032e-13
7.35252e-13
5.88313e-13
4.48834e-13
3.30749e-13
2.3569e-13
1.59979e-13
1.03447e-13
6.12776e-14
3.41846e-14
1.99995e-14
9.81598e-15
4.49203e-15
3.78839e-15
4.05774e-15
2.95597e-15
3.30677e-15
3.2701e-15
3.35978e-15
3.26471e-15
3.03957e-15
3.02128e-15
3.04751e-15
3.13673e-15
3.16626e-15
2.85471e-15
2.61245e-15
2.51703e-15
2.30506e-15
2.85168e-15
2.22489e-15
2.62116e-15
2.70863e-15
2.41994e-15
2.29861e-15
2.00822e-15
2.38367e-15
2.23474e-15
2.09462e-15
1.95293e-15
1.72542e-15
1.75258e-15
1.68695e-15
1.73438e-15
1.6898e-15
1.33932e-15
1.34729e-15
1.11684e-15
1.17577e-15
1.11188e-15
1.45411e-15
1.51704e-15
1.16675e-15
8.69233e-16
8.89377e-16
9.84663e-16
8.04979e-16
8.62575e-16
1.04035e-15
7.27095e-16
6.26857e-16
3.25241e-16
4.71896e-17
2.70972e-17
1.38778e-17
2.45327e-17
1.96262e-17
3.46945e-18
2.70972e-17
9.81308e-18
0
9.81308e-18
9.81308e-18
9.81308e-18
9.81308e-18
9.81308e-18
0
0
0
0
0
0
0
0
0
0
0
0
0
0
0
0
0
0
0
0
0
0
0
0
0
0
0
0
0
0
0
0
0
0
0
0
0
0
0
0.04
0.0220228
0.0226097
0.0236696
0.0244764
0.0244647
0.0242235
0.0236823
0.024073
0.0244014
0.0238072
0.0232506
0.0236179
0.0240922
0.0240717
0.0241024
0.0244229
0.0245777
0.0244768
0.0243942
0.0244992
0.0244567
0.0245651
0.0246052
0.02491
0.0249061
0.0251865
0.0252056
0.025504
0.0254959
0.0257578
0.0257794
0.0259762
0.0260007
0.026193
0.0262868
0.0264569
0.026547
0.0266592
0.0267024
0.0267478
0.026772
0.0267984
0.0267993
0.0267859
0.0267521
0.0267048
0.0266542
0.0266105
0.0265705
0.0265345
0.026507
0.026484
0.0264659
0.0264606
0.0264639
0.0264666
0.0264747
0.0264892
0.0265018
0.0265154
0.0265346
0.026552
0.0265682
0.0265902
0.0266151
0.0266411
0.026674
0.0267107
0.0267446
0.0267832
0.0268287
0.0268734
0.026921
0.0269788
0.0270378
0.0270939
0.0271555
0.0272228
0.0272857
0.0273481
0.0274174
0.0274862
0.0275471
0.0276103
0.0276785
0.0277403
0.0277956
0.0278568
0.0279178
0.0279689
0.0280172
0.0280694
0.0281153
0.0281524
0.0281888
0.0282235
0.0282477
0.0282664
0.0282835
0.0282916
0.0282891
0.0282853
0.0282748
0.028251
0.0282225
0.0281922
0.0281482
0.0280965
0.028046
0.0279861
0.0279153
0.0278475
0.0277761
0.0276938
0.0276134
0.0275358
0.0274501
0.0273639
0.0272841
0.0272019
0.0271166
0.0270377
0.0269622
0.0268832
0.0268058
0.0267351
0.0266639
0.0265901
0.0265217
0.0264579
0.0263912
0.026325
0.0262646
0.0262065
0.0261485
0.0260953
0.0260478
0.0260023
0.0259581
0.0259168
0.0258789
0.0258439
0.0258091
0.0257737
0.0257399
0.0257066
0.0256729
0.0256434
0.0256201
0.0255992
0.025578
0.0255561
0.0255329
0.0255105
0.0254904
0.0254716
0.0254548
0.0254393
0.0254184
0.0253875
0.0253531
0.0253219
0.0252922
0.0252637
0.025242
0.0252249
0.0252005
0.0251663
0.0251346
0.0251107
0.0250809
0.0250343
0.0249772
0.0249195
0.024866
0.0248317
0.0248402
0.0248861
0.0249159
0.024871
0.024746
0.0245801
0.0243872
0.0241278
0.0237788
0.0234097
0.0231426
0.0230197
0.0229382
0.0227477
0.0224108
0.0220334
0.0217184
0.0214162
0.0209697
0.0203315
0.0197124
0.0194579
0.0197315
0.0203009
0.0206532
0.0203983
0.0196506
0.0190591
0.019465
0.0213557
0.0242377
0.0263686
0.0256907
0.0216128
0.0156195
0.00988135
0.0056453
0.00300307
0.00152137
0.00074402
0.000353744
0.000164049
7.42537e-05
3.28039e-05
1.41578e-05
5.95564e-06
2.41545e-06
9.41152e-07
3.59482e-07
1.47955e-07
5.00681e-08
3.85533e-09
4.98402e-09
1.73985e-08
4.015e-09
1.58957e-08
5.57855e-09
1.52024e-08
7.92427e-09
7.88915e-09
4.55179e-09
3.24475e-09
2.20727e-09
4.49323e-09
2.57361e-09
4.83885e-09
7.47738e-10
2.76299e-09
4.56641e-10
8.88403e-10
2.54508e-10
2.12962e-10
5.38989e-11
3.57462e-11
3.03467e-12
2.62311e-11
9.41718e-12
1.81231e-11
2.37086e-11
1.72862e-11
1.73449e-11
1.81395e-11
2.15414e-11
1.90562e-11
1.31158e-11
7.96076e-12
4.77323e-12
2.93985e-12
9.83689e-13
1.53334e-12
4.14422e-12
6.17202e-12
7.19641e-12
7.05781e-12
6.00898e-12
4.68445e-12
3.54401e-12
2.64597e-12
1.85497e-12
1.08892e-12
3.52996e-13
3.02151e-13
7.95753e-13
1.09296e-12
1.20284e-12
1.18435e-12
1.10582e-12
1.00243e-12
8.82665e-13
7.47959e-13
6.06438e-13
4.66161e-13
3.4232e-13
2.40705e-13
1.63449e-13
1.05568e-13
6.44799e-14
3.66817e-14
2.02746e-14
1.07441e-14
5.36831e-15
3.26588e-15
3.86938e-15
3.52314e-15
3.41132e-15
3.32595e-15
3.306e-15
3.18008e-15
3.32779e-15
3.12306e-15
3.00801e-15
3.20735e-15
2.99735e-15
2.78675e-15
2.62604e-15
2.39303e-15
2.51329e-15
2.52963e-15
2.41036e-15
2.33417e-15
2.47734e-15
2.40106e-15
2.29634e-15
2.11272e-15
2.13693e-15
1.94879e-15
1.97934e-15
1.94748e-15
1.70372e-15
1.99518e-15
1.78696e-15
1.99495e-15
1.75241e-15
1.57425e-15
1.54756e-15
9.87337e-16
1.07848e-15
1.23797e-15
1.43718e-15
1.37784e-15
1.26858e-15
7.76854e-16
8.92323e-16
8.39649e-16
8.64442e-16
1.02137e-15
9.92971e-16
7.28625e-16
4.63739e-16
1.60946e-16
5.88785e-17
3.62221e-17
3.41701e-17
3.53816e-17
1.38778e-17
1.96262e-17
3.10317e-17
1.38778e-17
1.38778e-17
1.38778e-17
4.90654e-18
1.38778e-17
9.81308e-18
9.81308e-18
0
0
0
0
0
0
0
0
0
0
0
0
0
0
0
0
0
0
0
0
0
0
0
0
0
0
0
0
0
0
0
0
0
0
0
0
0
0
0
0.04
0.0222057
0.0228945
0.0231834
0.0234649
0.0237029
0.0241138
0.0246902
0.024958
0.0241907
0.0237669
0.0241269
0.0242603
0.0239178
0.0240085
0.024506
0.024669
0.0245123
0.0245515
0.0246509
0.0246557
0.0245553
0.0247614
0.0248074
0.0250041
0.0249678
0.0252709
0.025252
0.0255185
0.0255302
0.0258101
0.025805
0.0260022
0.0260488
0.0262462
0.0263207
0.026481
0.0265549
0.0266394
0.0266647
0.0267135
0.0267419
0.02677
0.0267816
0.026785
0.0267668
0.0267388
0.0267065
0.0266678
0.0266233
0.0265821
0.0265444
0.0265102
0.0264896
0.0264795
0.0264699
0.0264667
0.0264746
0.0264843
0.0264967
0.0265164
0.0265347
0.0265485
0.0265659
0.0265864
0.0266077
0.0266356
0.0266678
0.0266976
0.026731
0.0267711
0.0268114
0.0268562
0.0269114
0.0269685
0.0270229
0.0270838
0.0271492
0.0272109
0.0272728
0.0273421
0.0274104
0.0274718
0.0275348
0.027603
0.0276643
0.0277204
0.0277829
0.0278463
0.0278995
0.027952
0.0280092
0.0280607
0.0281042
0.0281484
0.02819
0.0282253
0.0282549
0.0282796
0.0282982
0.0283116
0.028316
0.0283126
0.0283047
0.0282878
0.0282591
0.0282279
0.0281902
0.0281371
0.0280801
0.0280246
0.0279541
0.027875
0.0278029
0.0277244
0.027633
0.0275478
0.0274665
0.0273755
0.0272844
0.0272027
0.0271193
0.0270311
0.0269496
0.0268745
0.0267955
0.0267166
0.0266464
0.026578
0.0265054
0.0264377
0.0263759
0.0263117
0.0262472
0.0261893
0.0261355
0.0260828
0.0260339
0.0259902
0.0259492
0.0259091
0.0258702
0.0258354
0.0258047
0.0257712
0.0257342
0.0257
0.0256662
0.0256293
0.0255981
0.0255766
0.0255554
0.0255308
0.0255094
0.0254923
0.0254746
0.0254578
0.0254458
0.0254344
0.025415
0.0253865
0.0253556
0.0253262
0.0252979
0.0252721
0.0252519
0.0252328
0.0252037
0.0251607
0.0251132
0.0250698
0.025028
0.0249853
0.0249493
0.0249249
0.0249048
0.0248889
0.0248939
0.0249195
0.0249192
0.0248357
0.024664
0.0244505
0.0242183
0.0239316
0.0235635
0.0231775
0.0228967
0.0227793
0.0227474
0.0226675
0.0224918
0.0222839
0.0220942
0.0218424
0.0213806
0.0206984
0.0200372
0.019745
0.0199726
0.0204831
0.0207716
0.0204566
0.0196483
0.0189861
0.0193072
0.0211087
0.0239317
0.0260828
0.0255146
0.0215745
0.0156709
0.00995578
0.00570557
0.00304187
0.00154369
0.000756229
0.000360275
0.000167538
7.61904e-05
3.38838e-05
1.47288e-05
6.29885e-06
2.66778e-06
1.09877e-06
4.30676e-07
1.75053e-07
8.14424e-08
3.48123e-08
2.63037e-08
1.24247e-08
1.83658e-08
8.3236e-09
1.67988e-08
1.06111e-08
9.03275e-09
7.36739e-09
3.68604e-09
2.32389e-09
5.04791e-10
4.37063e-09
2.97798e-09
3.5985e-09
3.14066e-09
1.58273e-09
2.01365e-09
3.54043e-10
9.06349e-10
4.29309e-11
3.31302e-10
5.18984e-11
1.1116e-10
3.29332e-11
4.8286e-11
3.25238e-11
1.73016e-11
1.76569e-11
1.68187e-11
2.42635e-11
2.14048e-11
1.62775e-11
1.17863e-11
9.21238e-12
7.13645e-12
4.6778e-12
1.98728e-12
7.67494e-13
3.32995e-12
5.4586e-12
6.57144e-12
6.43285e-12
5.53138e-12
4.45853e-12
3.49912e-12
2.66418e-12
1.86934e-12
1.06451e-12
2.92953e-13
3.53215e-13
8.08746e-13
1.07297e-12
1.18712e-12
1.19342e-12
1.12412e-12
1.01386e-12
8.90538e-13
7.57812e-13
6.17079e-13
4.7559e-13
3.50555e-13
2.4864e-13
1.69011e-13
1.08907e-13
6.67907e-14
3.88043e-14
1.97118e-14
1.01698e-14
7.01464e-15
4.03641e-15
2.69787e-15
3.57179e-15
3.65696e-15
3.19988e-15
3.1897e-15
3.03967e-15
3.11254e-15
2.96662e-15
2.95592e-15
3.20586e-15
3.19573e-15
2.95637e-15
2.5805e-15
2.55363e-15
2.59211e-15
2.22452e-15
2.30522e-15
2.73271e-15
2.64031e-15
2.25863e-15
2.25983e-15
2.30415e-15
2.23051e-15
1.93822e-15
1.8504e-15
1.87836e-15
1.95052e-15
1.81727e-15
1.72537e-15
1.71045e-15
1.82381e-15
1.65777e-15
1.60784e-15
1.3447e-15
1.03615e-15
1.37022e-15
1.42753e-15
1.4059e-15
8.9499e-16
9.02223e-16
9.64388e-16
8.89702e-16
7.56793e-16
9.77996e-16
1.17317e-15
7.16497e-16
3.65414e-16
1.64497e-16
3.27307e-17
7.14403e-17
7.75792e-18
3.10317e-17
2.19427e-17
2.19427e-17
3.75278e-17
9.81308e-18
1.38778e-17
9.81308e-18
9.81308e-18
9.81308e-18
9.81308e-18
9.81308e-18
0
0
0
0
0
0
0
0
0
0
0
0
0
0
0
0
0
0
0
0
0
0
0
0
0
0
0
0
0
0
0
0
0
0
0
0
0
0
0
0.04
0.0227903
0.0232333
0.0228576
0.0233427
0.0239377
0.0244104
0.0245741
0.0244704
0.0243899
0.0245716
0.024313
0.0239068
0.0240535
0.024498
0.0245467
0.0244346
0.024574
0.0247601
0.0246685
0.0246516
0.0247229
0.0249298
0.024859
0.0250469
0.0250324
0.0252714
0.0252036
0.0254966
0.0255134
0.0257624
0.0257618
0.0259952
0.0260497
0.0262396
0.0263164
0.0264653
0.0265054
0.026567
0.0265908
0.0266365
0.0266595
0.0266942
0.0267192
0.0267359
0.0267405
0.0267415
0.0267274
0.0266964
0.026657
0.0266124
0.0265649
0.0265277
0.0265022
0.0264768
0.0264576
0.0264526
0.0264529
0.0264583
0.0264763
0.026497
0.0265126
0.0265298
0.0265496
0.0265684
0.0265912
0.0266193
0.0266464
0.0266759
0.0267124
0.0267505
0.0267919
0.0268439
0.0268986
0.0269514
0.0270109
0.0270763
0.0271376
0.0271994
0.0272681
0.0273362
0.0273966
0.0274596
0.0275278
0.02759
0.0276465
0.02771
0.0277751
0.0278299
0.0278836
0.0279463
0.0280039
0.0280515
0.0281026
0.0281571
0.0282
0.0282362
0.028275
0.0283085
0.0283286
0.028346
0.028361
0.0283614
0.0283515
0.0283432
0.0283222
0.028284
0.0282467
0.0282053
0.0281432
0.0280773
0.028014
0.0279361
0.0278491
0.0277675
0.0276798
0.0275838
0.0274921
0.0274022
0.0273069
0.0272134
0.0271257
0.0270374
0.0269478
0.0268643
0.0267864
0.0267073
0.0266301
0.0265603
0.0264923
0.026422
0.0263557
0.0262947
0.0262335
0.026173
0.0261183
0.0260687
0.0260212
0.0259761
0.0259351
0.0258976
0.0258608
0.0258238
0.0257903