# vtk DataFile Version 3.0
LBM output step 1010
ASCII
DATASET STRUCTURED_POINTS
DIMENSIONS 400 100 1
ORIGIN 0 0 0
SPACING 1 1 1
POINT_DATA 40000
SCALARS velocity_magnitude double 1
LOOKUP_TABLE default
0
0
0
0
0
0
0
0
0
0
0
0
0
0
0
0
0
0
0
0
0
0
0
0
0
0
0
0
0
0
0
0
0
0
0
0
0
0
0
0
0
0
0
0
0
0
0
0
0
0
0
0
0
0
0
0
0
0
0
0
0
0
0
0
0
0
0
0
0
0
0
0
0
0
0
0
0
0
0
0
0
0
0
0
0
0
0
0
0
0
0
0
0
0
0
0
0
0
0
0
0
0
0
0
0
0
0
0
0
0
0
0
0
0
0
0
0
0
0
0
0
0
0
0
0
0
0
0
0
0
0
0
0
0
0
0
0
0
0
0
0
0
0
0
0
0
0
0
0
0
0
0
0
0
0
0
0
0
0
0
0
0
0
0
0
0
0
0
0
0
0
0
0
0
0
0
0
0
0
0
0
0
0
0
0
0
0
0
0
0
0
0
0
0
0
0
0
0
0
0
0
0
0
0
0
0
0
0
0
0
0
0
0
0
0
0
0
0
0
0
0
0
0
0
0
0
0
0
0
0
0
0
0
0
0
0
0
0
0
0
0
0
0
0
0
0
0
0
0
0
0
0
0
0
0
0
0
0
0
0
0
0
0
0
0
0
0
0
0
0
0
0
0
0
0
0
0
0
0
0
0
0
0
0
0
0
0
0
0
0
0
0
0
0
0
0
0
0
0
0
0
0
0
0
0
0
0
0
0
0
0
0
0
0
0
0
0
0
0
0
0
0
0
0
0
0
0
0
0
0
0
0
0
0
0
0
0
0
0
0
0
0
0
0
0
0
0
0
0
0
0
0
0
0
0
0
0
0
0
0
0
0
0
0
0
0
0
0
0
0
0
0
0
0
0
0
0
0
0
0
0
0
0
0
0
0
0
0
0
0
0
0
0
0
0
0
0
0
0
0
0.04
0.0140829
0.0084689
0.0131378
0.0155981
0.0152131
0.0121753
0.0115636
0.0116042
0.0116626
0.0113276
0.0113454
0.0110984
0.0109436
0.0108341
0.0108431
0.0106903
0.0105938
0.0105121
0.0104581
0.0103443
0.0102818
0.0102135
0.0101476
0.0100632
0.0100102
0.00994172
0.00987044
0.00979119
0.00972238
0.00963597
0.00954769
0.00945492
0.00936353
0.00926072
0.00915979
0.00905767
0.00895603
0.00885169
0.00875189
0.00865476
0.00855882
0.00846692
0.00837748
0.00829372
0.00820799
0.00813049
0.00804914
0.0079777
0.00789846
0.00783319
0.00775713
0.0076986
0.00762609
0.00757577
0.00750867
0.00746766
0.00740681
0.00737526
0.00732143
0.00729805
0.00724995
0.00723304
0.00719016
0.00717698
0.00713858
0.00712857
0.00709419
0.00708587
0.00705669
0.00704992
0.00702503
0.00702035
0.00700104
0.00699713
0.00698254
0.00698108
0.00697038
0.0069689
0.00696224
0.00696209
0.00695649
0.00695583
0.00695283
0.00695179
0.00694791
0.00694679
0.00694451
0.00694228
0.00693923
0.00693799
0.00693592
0.00693343
0.00693082
0.0069286
0.00692449
0.00691873
0.00691132
0.00690153
0.00688774
0.00687069
0.00685004
0.00682516
0.00679597
0.00676369
0.00672783
0.00668884
0.00664785
0.00660567
0.00656203
0.00651839
0.00647553
0.00643342
0.00639231
0.0063534
0.00631633
0.00628091
0.00624767
0.00621693
0.00618783
0.00616052
0.00613544
0.00611223
0.00609003
0.00606947
0.00605078
0.00603305
0.0060161
0.00600111
0.00598768
0.00597502
0.0059641
0.00595571
0.00594873
0.00594314
0.00594005
0.00593897
0.00593859
0.0059394
0.00594167
0.00594403
0.00594583
0.00594789
0.0059498
0.00595051
0.0059505
0.00595057
0.00595009
0.005949
0.00594847
0.00594886
0.00594962
0.00595125
0.00595453
0.00595881
0.00596345
0.00596885
0.00597487
0.00598049
0.00598542
0.00598999
0.00599372
0.00599591
0.00599667
0.00599614
0.00599384
0.00598949
0.00598334
0.00597533
0.0059651
0.00595274
0.00593875
0.00592353
0.00590764
0.00589209
0.00587791
0.00586575
0.00585615
0.00584962
0.00584635
0.00584627
0.00584937
0.00585567
0.00586507
0.00587746
0.00589279
0.00591092
0.00593147
0.00595398
0.00597791
0.00600258
0.0060273
0.00605153
0.00607486
0.00609694
0.00611754
0.00613652
0.0061538
0.00616938
0.00618344
0.00619639
0.00620887
0.00622181
0.00623657
0.0062551
0.00628024
0.00631616
0.00636874
0.00644585
0.00655718
0.00671363
0.00692602
0.00720326
0.00755019
0.00796553
0.00844032
0.00895718
0.00949085
0.0100099
0.01048
0.0108683
0.0111493
0.0113107
0.0113584
0.011317
0.011224
0.0111188
0.0110288
0.0109611
0.0109047
0.0108411
0.0107586
0.0106595
0.010558
0.0104703
0.0104058
0.010366
0.0103494
0.0103572
0.0103924
0.0104541
0.0105335
0.0106149
0.0106832
0.0107286
0.0107482
0.0107429
0.0107149
0.0106683
0.0106101
0.0105507
0.0105003
0.0104658
0.0104478
0.0104413
0.0104396
0.0104367
0.0104299
0.0104188
0.0104047
0.0103886
0.0103713
0.0103526
0.0103315
0.0103061
0.0102744
0.0102347
0.0101865
0.0101301
0.0100665
0.00999649
0.00992068
0.00983986
0.00975532
0.00966906
0.00958355
0.00950147
0.00942549
0.009358
0.00930094
0.00925569
0.00922298
0.00920278
0.00919419
0.00919531
0.00920326
0.00921458
0.00922564
0.00923315
0.00923443
0.00922771
0.00921228
0.0091887
0.00915887
0.00912584
0.00909339
0.0090654
0.00904522
0.00903518
0.00903628
0.00904828
0.00906988
0.0090991
0.00913358
0.00917094
0.00920897
0.00924578
0.00927986
0.0093101
0.00933592
0.00935729
0.00937482
0.00938961
0.00940305
0.00941657
0.00943137
0.00944831
0.00946785
0.00949017
0.00951535
0.00954354
0.00957515
0.00961081
0.00965116
0.00969653
0.00974659
0.00980023
0.00985558
0.00991043
0.00996256
0.0100102
0.0100524
0.010089
0.0101204
0.0101479
0.0101728
0.0101962
0.0102185
0.0102394
0.0102576
0.0102711
0.0102777
0.0102754
0.0102634
0.0102416
0.0102113
0.0101742
0.0101322
0.0100869
0.0100399
0.00999244
0.00994614
0.0099027
0.00986389
0.00983126
0.00980576
0.00978748
0.00977575
0.00976942
0.00976732
0.00976876
0.00977377
0.00978301
0.00979745
0.00981776
0.00984395
0.0098753
0.00991076
0.00994954
0.00999156
0.0100375
0.0100885
0.0101452
0.0102071
0.0102727
0.010339
0.0104032
0.0104627
0.0105162
0.0105638
0.0106068
0.0106473
0.0106875
0.010729
0.010772
0.0108155
0.0108568
0.0108923
0.0109187
0.0109332
0.0109352
0.0109256
0.0109075
0.0108844
0.0108591
0.0108347
0.0108158
0.0107961
0.0107727
0.0107727
0.04
0.0231223
0.0246721
0.0221329
0.0150443
0.0142891
0.0173533
0.018014
0.0163879
0.0157742
0.0159023
0.0157544
0.0154289
0.0153955
0.0152615
0.0150191
0.0148703
0.0148426
0.0147122
0.0145704
0.0144973
0.0144504
0.0143598
0.0143003
0.0142733
0.0142375
0.0141843
0.0141512
0.0141159
0.0140602
0.0139951
0.0139348
0.0138619
0.0137769
0.0136918
0.0136081
0.0135179
0.0134266
0.0133413
0.0132574
0.0131755
0.0130966
0.0130269
0.0129563
0.0128942
0.0128309
0.0127803
0.0127221
0.0126796
0.0126266
0.0125944
0.012545
0.0125225
0.0124783
0.012468
0.0124289
0.0124311
0.0123991
0.0124145
0.0123883
0.0124157
0.0123967
0.0124332
0.012419
0.0124645
0.0124563
0.0125058
0.0125043
0.0125598
0.0125635
0.0126208
0.0126345
0.012694
0.0127125
0.0127746
0.0128029
0.0128626
0.0128955
0.0129577
0.0129956
0.0130521
0.0130936
0.0131506
0.013191
0.0132412
0.0132838
0.0133314
0.0133687
0.0134107
0.0134481
0.0134847
0.0135151
0.0135467
0.0135734
0.0135961
0.0136138
0.0136282
0.0136355
0.0136366
0.0136309
0.0136182
0.0135975
0.01357
0.0135345
0.0134924
0.0134446
0.0133908
0.0133315
0.0132698
0.0132052
0.013137
0.0130688
0.0130016
0.0129325
0.0128639
0.0127991
0.0127347
0.0126699
0.0126093
0.0125517
0.0124936
0.012438
0.0123872
0.012337
0.0122874
0.0122423
0.0122
0.0121579
0.0121186
0.0120837
0.0120505
0.0120188
0.0119915
0.0119678
0.0119458
0.0119265
0.0119113
0.0118982
0.0118861
0.0118763
0.0118685
0.011861
0.0118535
0.0118472
0.0118414
0.011835
0.0118287
0.0118234
0.0118184
0.0118135
0.01181
0.0118082
0.0118073
0.0118075
0.0118096
0.0118128
0.0118161
0.0118199
0.0118241
0.0118279
0.0118308
0.011833
0.0118345
0.0118344
0.0118327
0.0118297
0.0118252
0.0118187
0.0118105
0.0118008
0.0117895
0.0117768
0.0117635
0.0117504
0.0117382
0.0117278
0.0117201
0.0117158
0.0117149
0.0117177
0.0117242
0.0117343
0.0117478
0.0117646
0.0117846
0.0118075
0.0118332
0.0118612
0.0118911
0.0119222
0.011954
0.0119857
0.0120167
0.0120466
0.0120749
0.0121015
0.0121261
0.0121486
0.012169
0.0121877
0.0122049
0.0122214
0.0122382
0.0122567
0.012279
0.0123082
0.0123488
0.0124072
0.0124918
0.0126132
0.0127833
0.0130141
0.0133158
0.0136947
0.0141508
0.0146764
0.0152547
0.0158608
0.016463
0.0170254
0.0175134
0.0178986
0.0181657
0.0183173
0.0183755
0.0183764
0.0183589
0.0183506
0.0183589
0.0183728
0.0183738
0.0183502
0.0183051
0.0182533
0.0182118
0.0181903
0.0181901
0.01821
0.0182519
0.0183199
0.0184142
0.0185263
0.0186406
0.0187419
0.0188205
0.0188735
0.0189015
0.018906
0.0188902
0.0188608
0.0188277
0.0188014
0.0187888
0.0187907
0.0188027
0.018818
0.0188313
0.0188398
0.0188435
0.0188431
0.0188395
0.0188331
0.0188238
0.0188108
0.0187923
0.0187663
0.0187314
0.0186869
0.0186335
0.0185721
0.0185036
0.0184287
0.0183482
0.0182635
0.0181769
0.0180908
0.0180081
0.0179316
0.0178639
0.0178071
0.0177627
0.0177315
0.0177137
0.0177084
0.0177138
0.0177271
0.0177449
0.0177636
0.0177799
0.0177909
0.0177948
0.0177908
0.0177794
0.0177624
0.0177428
0.0177243
0.0177104
0.0177045
0.0177088
0.0177242
0.0177507
0.0177869
0.0178308
0.01788
0.017932
0.0179844
0.0180349
0.018082
0.0181244
0.0181616
0.0181935
0.0182211
0.0182456
0.0182686
0.0182919
0.0183168
0.0183443
0.018375
0.018409
0.0184463
0.018487
0.0185313
0.0185796
0.0186324
0.0186897
0.018751
0.0188151
0.01888
0.0189436
0.0190038
0.0190588
0.0191077
0.0191504
0.0191874
0.0192199
0.0192492
0.0192764
0.019302
0.0193255
0.0193459
0.0193611
0.0193692
0.0193686
0.0193584
0.0193389
0.0193111
0.019277
0.0192383
0.0191971
0.0191548
0.019113
0.0190734
0.0190377
0.0190075
0.0189844
0.0189692
0.0189619
0.0189618
0.0189679
0.018979
0.0189946
0.0190145
0.0190392
0.0190694
0.0191055
0.0191473
0.0191938
0.0192441
0.0192972
0.0193532
0.0194126
0.0194765
0.0195452
0.0196184
0.0196943
0.01977
0.0198427
0.01991
0.0199706
0.0200248
0.0200741
0.0201205
0.0201665
0.0202134
0.0202615
0.0203094
0.0203543
0.0203927
0.020421
0.0204364
0.0204387
0.0204286
0.020409
0.0203836
0.0203567
0.0203285
0.0202991
0.0202709
0.0202456
0.0202456
0.04
0.0240062
0.022079
0.0191209
0.0201998
0.0222949
0.0213032
0.0196503
0.0198457
0.0203763
0.0198407
0.019256
0.019157
0.0190825
0.0187702
0.0185877
0.0184891
0.0183272
0.0181376
0.0180568
0.0179755
0.017866
0.0177844
0.0177609
0.0177236
0.0176863
0.0176725
0.0176694
0.0176431
0.0176144
0.0175869
0.0175475
0.01749
0.0174328
0.017373
0.0173054
0.0172347
0.0171696
0.0171057
0.0170415
0.0169835
0.0169307
0.016883
0.0168366
0.0168002
0.0167636
0.0167369
0.0167063
0.0166908
0.0166667
0.0166615
0.0166424
0.0166494
0.0166361
0.0166562
0.0166477
0.0166823
0.0166799
0.0167281
0.0167295
0.0167923
0.0167978
0.016871
0.0168803
0.0169652
0.0169767
0.0170694
0.0170874
0.0171869
0.0172088
0.0173151
0.0173457
0.0174535
0.0174922
0.0176048
0.0176512
0.0177616
0.0178182
0.0179282
0.0179883
0.0180943
0.0181621
0.0182616
0.0183287
0.0184234
0.0184929
0.0185773
0.0186434
0.0187228
0.0187857
0.0188534
0.0189109
0.0189717
0.0190207
0.0190679
0.0191071
0.0191426
0.0191665
0.0191839
0.0191928
0.0191928
0.019181
0.0191617
0.0191335
0.0190947
0.0190473
0.0189947
0.0189338
0.0188656
0.0187946
0.0187205
0.0186404
0.0185593
0.018479
0.0183959
0.0183113
0.01823
0.0181486
0.0180659
0.0179862
0.0179092
0.0178315
0.0177557
0.0176839
0.0176134
0.0175436
0.0174778
0.0174153
0.017354
0.0172956
0.0172417
0.0171907
0.017142
0.0170976
0.0170573
0.0170196
0.0169849
0.016954
0.0169261
0.0168999
0.016876
0.0168545
0.0168345
0.0168154
0.0167979
0.0167818
0.0167664
0.0167517
0.0167387
0.0167271
0.0167166
0.0167077
0.016701
0.016696
0.0166921
0.0166898
0.0166889
0.0166884
0.0166883
0.0166886
0.0166889
0.0166885
0.0166876
0.0166861
0.0166836
0.0166796
0.0166743
0.0166677
0.0166596
0.0166499
0.016639
0.0166272
0.0166148
0.0166026
0.0165916
0.0165823
0.0165757
0.0165722
0.0165723
0.0165761
0.0165835
0.0165945
0.0166087
0.016626
0.0166463
0.0166694
0.016695
0.0167229
0.0167527
0.016784
0.016816
0.0168483
0.0168803
0.0169113
0.0169411
0.0169692
0.0169955
0.0170199
0.0170422
0.0170627
0.0170819
0.0171003
0.0171189
0.0171391
0.017163
0.0171936
0.0172354
0.0172949
0.0173802
0.0175018
0.0176712
0.0179003
0.0181991
0.0185736
0.0190238
0.0195416
0.0201107
0.0207061
0.021296
0.0218452
0.0223192
0.02269
0.0229431
0.0230824
0.0231315
0.0231285
0.0231135
0.0231144
0.0231372
0.0231684
0.023187
0.0231801
0.0231514
0.0231175
0.0230964
0.0230976
0.0231211
0.0231641
0.0232278
0.0233167
0.0234315
0.0235636
0.0236972
0.0238166
0.0239131
0.0239849
0.0240333
0.02406
0.0240678
0.0240628
0.0240545
0.0240528
0.024064
0.0240886
0.0241219
0.0241575
0.0241903
0.0242184
0.0242419
0.0242614
0.0242779
0.0242914
0.0243019
0.0243085
0.0243096
0.0243035
0.0242888
0.0242653
0.0242336
0.0241947
0.0241492
0.0240977
0.0240407
0.0239794
0.0239158
0.023852
0.0237908
0.0237346
0.0236857
0.0236462
0.0236175
0.0236004
0.0235949
0.0236005
0.0236156
0.0236375
0.0236633
0.0236895
0.0237132
0.0237318
0.0237439
0.023749
0.0237478
0.0237421
0.0237349
0.0237292
0.0237285
0.0237352
0.0237515
0.023778
0.0238145
0.0238602
0.0239131
0.0239712
0.024032
0.0240932
0.0241525
0.0242082
0.0242589
0.0243039
0.0243432
0.0243773
0.0244075
0.0244352
0.0244621
0.0244896
0.0245186
0.0245499
0.0245839
0.0246208
0.0246609
0.0247049
0.0247533
0.0248067
0.0248652
0.0249285
0.0249952
0.0250636
0.0251314
0.0251966
0.0252574
0.0253127
0.025362
0.0254057
0.0254445
0.0254795
0.0255116
0.0255413
0.0255682
0.0255915
0.0256099
0.0256218
0.025626
0.0256218
0.0256094
0.0255896
0.0255638
0.0255335
0.0255005
0.0254662
0.0254321
0.0253998
0.0253708
0.0253467
0.0253286
0.0253172
0.0253127
0.0253145
0.0253219
0.0253341
0.0253506
0.0253712
0.0253964
0.0254265
0.0254618
0.0255021
0.0255467
0.0255947
0.0256457
0.0256995
0.025757
0.025819
0.0258858
0.025957
0.0260309
0.0261048
0.0261758
0.0262415
0.0263006
0.026353
0.0264
0.0264435
0.0264857
0.0265282
0.0265715
0.0266146
0.0266547
0.0266888
0.0267136
0.0267262
0.0267261
0.0267143
0.0266935
0.0266662
0.0266369
0.0266083
0.0265796
0.0265529
0.0265289
0.0265289
0.04
0.0258072
0.0270473
0.027006
0.0266684
0.0240383
0.022439
0.0234387
0.0241291
0.0229971
0.0221141
0.0223313
0.0223622
0.0218707
0.0215496
0.0215341
0.0213522
0.0210965
0.020972
0.0209027
0.0207377
0.020617
0.0205704
0.0205233
0.0204488
0.0204313
0.0204378
0.0204295
0.0204148
0.0204242
0.0204203
0.0203968
0.0203693
0.0203457
0.0203056
0.0202592
0.0202167
0.0201761
0.0201302
0.0200889
0.0200547
0.0200224
0.0199928
0.019969
0.0199524
0.0199356
0.0199271
0.0199192
0.0199216
0.0199195
0.0199325
0.0199374
0.0199621
0.0199732
0.0200106
0.0200267
0.0200783
0.0200988
0.0201628
0.0201863
0.0202647
0.0202882
0.0203788
0.0204045
0.0205071
0.0205319
0.0206475
0.0206746
0.0207988
0.0208296
0.0209645
0.0209989
0.0211401
0.021184
0.0213293
0.0213793
0.0215281
0.0215884
0.0217327
0.0218003
0.0219437
0.0220166
0.0221496
0.0222291
0.0223564
0.0224346
0.0225504
0.0226327
0.0227387
0.0228148
0.0229108
0.0229859
0.0230685
0.0231335
0.0232048
0.0232604
0.0233135
0.023354
0.0233902
0.0234122
0.0234269
0.0234295
0.0234225
0.023404
0.0233771
0.0233386
0.0232918
0.0232378
0.0231757
0.0231059
0.0230331
0.0229552
0.0228715
0.0227865
0.0227008
0.0226104
0.0225191
0.0224298
0.0223383
0.0222449
0.0221544
0.0220647
0.0219733
0.0218838
0.0217975
0.0217115
0.0216264
0.021545
0.0214666
0.0213895
0.0213155
0.0212459
0.0211793
0.0211154
0.0210555
0.0209998
0.0209472
0.0208973
0.0208512
0.0208086
0.0207683
0.0207302
0.0206954
0.0206632
0.0206324
0.0206035
0.0205772
0.0205526
0.020529
0.0205077
0.0204888
0.0204713
0.0204555
0.0204424
0.0204311
0.0204207
0.0204119
0.0204046
0.0203978
0.0203911
0.0203851
0.0203795
0.0203733
0.0203664
0.0203592
0.020351
0.0203412
0.0203302
0.0203183
0.0203049
0.0202904
0.0202753
0.0202601
0.0202452
0.0202313
0.0202196
0.0202105
0.0202045
0.0202022
0.0202038
0.020209
0.0202176
0.0202296
0.0202446
0.0202624
0.0202828
0.0203057
0.0203309
0.020358
0.0203867
0.0204166
0.020447
0.0204774
0.0205072
0.0205358
0.020563
0.0205883
0.0206116
0.020633
0.0206525
0.0206705
0.0206876
0.0207048
0.0207233
0.0207454
0.0207741
0.0208142
0.0208718
0.0209555
0.0210756
0.0212438
0.0214718
0.0217697
0.0221434
0.0225928
0.02311
0.0236782
0.0242722
0.0248603
0.0254066
0.0258762
0.0262411
0.0264863
0.0266161
0.0266552
0.0266432
0.0266219
0.0266195
0.0266409
0.0266701
0.0266838
0.0266686
0.0266297
0.0265862
0.0265583
0.0265553
0.0265753
0.0266137
0.0266711
0.0267533
0.0268622
0.0269894
0.0271182
0.0272326
0.0273242
0.0273927
0.0274406
0.0274698
0.0274821
0.0274825
0.0274793
0.0274821
0.0274969
0.027524
0.0275588
0.027595
0.0276282
0.0276571
0.0276824
0.027705
0.0277252
0.0277426
0.0277568
0.0277669
0.0277719
0.0277702
0.0277607
0.0277434
0.0277187
0.0276877
0.0276507
0.027608
0.0275601
0.0275078
0.027453
0.0273976
0.027344
0.0272945
0.0272513
0.0272162
0.0271908
0.0271757
0.0271711
0.0271764
0.0271902
0.0272104
0.027234
0.027258
0.0272798
0.0272973
0.0273092
0.0273153
0.0273167
0.0273152
0.0273134
0.0273141
0.0273201
0.0273333
0.0273553
0.0273868
0.0274277
0.0274771
0.0275337
0.0275956
0.0276603
0.0277256
0.0277891
0.0278488
0.0279031
0.0279511
0.0279927
0.0280282
0.0280588
0.028086
0.0281112
0.028136
0.0281616
0.0281886
0.0282178
0.0282497
0.0282849
0.0283242
0.0283684
0.0284184
0.0284741
0.0285351
0.0286003
0.0286678
0.0287357
0.0288017
0.0288641
0.0289215
0.0289733
0.0290194
0.0290603
0.0290965
0.0291289
0.0291576
0.0291826
0.0292034
0.0292191
0.0292288
0.0292319
0.0292278
0.0292165
0.0291986
0.0291751
0.0291472
0.0291164
0.0290841
0.0290519
0.0290214
0.0289937
0.0289702
0.0289517
0.0289389
0.028932
0.0289308
0.0289348
0.0289437
0.028957
0.0289746
0.0289966
0.0290231
0.0290544
0.02909
0.0291297
0.0291728
0.0292191
0.0292687
0.0293223
0.0293806
0.0294438
0.0295112
0.0295814
0.0296517
0.0297193
0.029782
0.0298381
0.0298874
0.0299309
0.0299703
0.0300077
0.0300446
0.0300818
0.0301185
0.0301528
0.0301814
0.0302014
0.0302103
0.030207
0.0301922
0.0301687
0.0301395
0.0301067
0.0300735
0.0300423
0.0300151
0.0299912
0.0299912
0.04
0.026675
0.0277475
0.0263805
0.0255976
0.0256656
0.0266598
0.0260084
0.0245569
0.0244228
0.0250876
0.0247914
0.0240211
0.0238686
0.0239718
0.0237227
0.0233893
0.0233023
0.0232103
0.0230082
0.0228548
0.0227978
0.0226928
0.0225809
0.0225322
0.0225196
0.0224798
0.0224653
0.0224827
0.0224975
0.022492
0.0224992
0.0225053
0.0224951
0.0224745
0.0224612
0.0224419
0.0224159
0.0223924
0.0223758
0.0223568
0.0223396
0.0223291
0.0223224
0.0223172
0.0223157
0.0223213
0.0223276
0.0223403
0.022354
0.0223776
0.0223978
0.0224318
0.0224591
0.0225042
0.0225369
0.0225939
0.0226293
0.0226978
0.0227354
0.022815
0.022851
0.0229445
0.022979
0.0230843
0.0231178
0.0232382
0.0232688
0.0234029
0.0234354
0.0235815
0.0236153
0.0237745
0.0238131
0.0239786
0.0240255
0.0241971
0.0242493
0.0244206
0.0244843
0.0246507
0.0247187
0.0248805
0.0249573
0.025106
0.0251862
0.025328
0.0254111
0.0255373
0.0256217
0.0257392
0.0258199
0.0259215
0.0259984
0.0260875
0.026153
0.0262232
0.0262766
0.0263287
0.0263625
0.0263918
0.0264081
0.0264154
0.0264077
0.0263936
0.0263684
0.0263317
0.0262859
0.0262355
0.0261745
0.0261056
0.0260343
0.0259582
0.0258737
0.025788
0.0257015
0.025609
0.0255136
0.0254199
0.0253234
0.0252231
0.0251242
0.025026
0.0249252
0.0248246
0.0247268
0.0246294
0.0245319
0.0244374
0.024346
0.0242562
0.0241687
0.0240853
0.0240054
0.0239279
0.0238537
0.0237838
0.0237174
0.0236535
0.0235931
0.023537
0.0234838
0.0234331
0.023386
0.0233426
0.0233012
0.023262
0.0232261
0.0231926
0.0231605
0.0231308
0.023104
0.023079
0.0230554
0.0230345
0.0230155
0.0229974
0.0229805
0.0229654
0.022951
0.0229369
0.0229234
0.0229105
0.0228971
0.022883
0.0228684
0.022853
0.0228362
0.0228182
0.0227996
0.0227802
0.0227602
0.0227404
0.0227214
0.0227036
0.0226877
0.0226747
0.0226649
0.0226587
0.0226561
0.0226573
0.022662
0.0226698
0.0226804
0.0226938
0.0227096
0.0227277
0.0227481
0.0227704
0.0227945
0.0228198
0.0228461
0.0228726
0.0228987
0.0229239
0.0229476
0.0229696
0.0229895
0.0230074
0.0230235
0.023038
0.0230515
0.0230648
0.0230795
0.0230974
0.0231219
0.0231576
0.0232108
0.0232901
0.0234058
0.0235696
0.0237934
0.0240873
0.0244574
0.0249037
0.0254183
0.0259845
0.0265769
0.0271633
0.0277075
0.0281737
0.0285332
0.0287706
0.0288903
0.0289181
0.0288955
0.0288663
0.0288599
0.0288808
0.0289104
0.0289231
0.0289037
0.0288581
0.0288077
0.0287744
0.028768
0.0287851
0.0288193
0.0288707
0.0289454
0.0290466
0.0291663
0.0292874
0.0293936
0.0294775
0.0295396
0.0295834
0.0296104
0.029622
0.0296223
0.029619
0.0296207
0.029633
0.0296558
0.0296847
0.0297141
0.0297406
0.0297635
0.0297839
0.0298022
0.0298183
0.0298315
0.0298413
0.0298472
0.0298485
0.0298439
0.0298323
0.0298136
0.0297885
0.0297577
0.0297216
0.0296803
0.0296338
0.029583
0.0295294
0.0294748
0.0294214
0.0293711
0.029326
0.029288
0.0292584
0.0292378
0.0292265
0.029224
0.0292289
0.0292394
0.0292529
0.0292669
0.029279
0.0292877
0.029292
0.0292921
0.0292893
0.0292853
0.0292826
0.0292835
0.0292898
0.0293032
0.0293247
0.0293547
0.0293934
0.0294401
0.0294937
0.0295526
0.0296146
0.0296774
0.0297385
0.0297957
0.0298472
0.0298919
0.0299295
0.0299604
0.0299855
0.0300063
0.0300244
0.0300411
0.0300578
0.0300754
0.0300947
0.0301164
0.0301414
0.0301707
0.0302054
0.0302462
0.0302934
0.0303464
0.0304041
0.0304649
0.0305269
0.030588
0.0306464
0.0307008
0.03075
0.0307938
0.0308321
0.0308654
0.030894
0.0309181
0.0309376
0.0309524
0.0309622
0.0309667
0.0309657
0.0309589
0.0309464
0.0309286
0.0309058
0.0308791
0.0308496
0.0308187
0.0307879
0.0307584
0.0307315
0.030708
0.0306886
0.0306737
0.0306636
0.0306584
0.0306581
0.0306625
0.0306715
0.0306847
0.030702
0.0307234
0.0307487
0.0307777
0.0308103
0.0308464
0.030886
0.0309296
0.0309776
0.0310303
0.0310879
0.0311495
0.0312135
0.0312776
0.0313393
0.0313962
0.0314469
0.0314911
0.0315293
0.0315631
0.0315943
0.0316245
0.0316544
0.0316835
0.03171
0.0317314
0.0317448
0.031748
0.0317403
0.0317219
0.0316952
0.0316637
0.0316297
0.0315954
0.0315628
0.0315326
0.0315067
0.0315067
0.04
0.0246621
0.0251531
0.0263555
0.0270795
0.026906
0.0265331
0.0258715
0.0261818
0.026563
0.026048
0.0253803
0.0255146
0.0257018
0.0253466
0.0249787
0.0249748
0.0249455
0.0247013
0.024523
0.0244674
0.0243588
0.0241962
0.0241135
0.0240649
0.0239896
0.0239302
0.0239305
0.0239324
0.0239251
0.023936
0.023964
0.023973
0.0239749
0.023983
0.0239887
0.0239803
0.0239741
0.0239724
0.0239678
0.0239602
0.0239592
0.0239609
0.0239618
0.0239657
0.023975
0.0239867
0.0239999
0.0240194
0.0240414
0.0240689
0.0240978
0.0241357
0.0241711
0.0242185
0.0242601
0.024316
0.0243598
0.0244262
0.0244702
0.0245446
0.0245883
0.0246751
0.0247142
0.0248145
0.0248522
0.0249665
0.0249997
0.0251325
0.025163
0.0253107
0.0253425
0.0255062
0.0255381
0.0257151
0.0257536
0.0259362
0.0259803
0.026169
0.0262201
0.026403
0.0264647
0.026644
0.0267097
0.0268777
0.0269551
0.0271119
0.0271896
0.0273352
0.0274208
0.0275505
0.0276327
0.0277521
0.0278335
0.0279334
0.0280062
0.0280921
0.0281522
0.0282151
0.0282606
0.0283033
0.0283273
0.0283474
0.0283529
0.0283486
0.0283326
0.02831
0.0282738
0.0282301
0.0281801
0.0281213
0.0280538
0.027984
0.0279079
0.0278244
0.027739
0.0276512
0.0275564
0.0274593
0.0273619
0.0272602
0.0271546
0.0270498
0.0269437
0.0268347
0.0267259
0.0266187
0.0265112
0.026404
0.0262993
0.0261972
0.0260967
0.0259985
0.0259038
0.0258125
0.0257237
0.0256379
0.0255562
0.0254782
0.025403
0.0253315
0.0252646
0.0252014
0.0251411
0.0250849
0.0250329
0.0249835
0.0249364
0.024893
0.0248524
0.0248133
0.0247766
0.024743
0.024711
0.0246803
0.0246521
0.024626
0.0246006
0.0245766
0.0245544
0.0245332
0.0245122
0.024492
0.0244723
0.0244521
0.0244311
0.0244095
0.0243872
0.0243637
0.0243394
0.024315
0.0242905
0.024266
0.0242426
0.0242207
0.0242007
0.0241833
0.0241691
0.0241586
0.0241516
0.0241482
0.0241482
0.0241513
0.0241571
0.0241653
0.0241759
0.0241886
0.0242035
0.0242204
0.0242392
0.0242595
0.0242808
0.0243027
0.0243245
0.0243454
0.0243649
0.0243828
0.0243986
0.0244125
0.0244244
0.0244349
0.0244442
0.0244533
0.0244635
0.0244769
0.0244968
0.0245278
0.0245765
0.0246514
0.0247629
0.0249228
0.0251428
0.0254332
0.0258
0.0262432
0.0267549
0.0273182
0.0279075
0.0284904
0.0290301
0.0294905
0.0298423
0.03007
0.0301786
0.030195
0.0301629
0.0301279
0.0301204
0.0301432
0.0301751
0.0301871
0.0301628
0.0301094
0.0300512
0.0300127
0.030004
0.0300195
0.0300503
0.0300954
0.0301618
0.0302544
0.0303659
0.0304787
0.0305763
0.0306514
0.0307062
0.0307456
0.0307714
0.0307842
0.0307866
0.0307849
0.0307869
0.0307973
0.0308161
0.0308393
0.0308619
0.0308814
0.0308981
0.0309133
0.0309276
0.0309401
0.0309497
0.0309559
0.0309582
0.0309561
0.0309489
0.0309358
0.0309167
0.030892
0.0308622
0.0308276
0.0307878
0.0307428
0.0306934
0.0306411
0.0305875
0.0305342
0.030483
0.0304359
0.0303945
0.0303602
0.0303337
0.0303152
0.0303041
0.0302993
0.030299
0.0303013
0.0303038
0.0303049
0.0303035
0.030299
0.0302921
0.0302841
0.0302769
0.0302723
0.0302721
0.0302775
0.0302895
0.0303085
0.030335
0.030369
0.0304102
0.0304579
0.0305108
0.0305671
0.0306245
0.0306806
0.0307329
0.0307796
0.0308193
0.0308516
0.0308767
0.0308954
0.030909
0.030919
0.0309267
0.0309336
0.0309408
0.030949
0.0309594
0.0309731
0.0309912
0.0310149
0.0310451
0.031082
0.0311253
0.0311737
0.031226
0.0312803
0.0313348
0.0313877
0.0314375
0.0314829
0.0315232
0.0315582
0.0315877
0.0316119
0.0316307
0.0316442
0.0316528
0.0316565
0.0316558
0.0316509
0.031642
0.0316289
0.0316118
0.0315905
0.0315657
0.0315383
0.0315095
0.0314808
0.0314532
0.0314277
0.0314048
0.0313848
0.0313681
0.0313551
0.0313462
0.0313418
0.031342
0.0313467
0.0313555
0.031368
0.0313838
0.0314027
0.0314247
0.0314501
0.0314793
0.0315125
0.0315504
0.0315932
0.0316409
0.0316932
0.0317491
0.0318071
0.0318652
0.0319211
0.0319729
0.0320191
0.0320591
0.0320932
0.0321227
0.0321488
0.0321731
0.0321965
0.0322188
0.0322384
0.0322535
0.0322616
0.0322605
0.0322496
0.0322296
0.032202
0.0321692
0.0321345
0.0321003
0.0320678
0.0320379
0.0320125
0.0320125
0.04
0.0246753
0.0253784
0.0258664
0.0260341
0.02607
0.0262252
0.0266405
0.0269394
0.0263281
0.0260459
0.0264949
0.0266406
0.0261197
0.0259039
0.0261151
0.0260811
0.0257605
0.0256395
0.0256669
0.0255371
0.0253424
0.025265
0.0252097
0.0250808
0.0249837
0.0249556
0.024923
0.0248761
0.0248758
0.0248992
0.0249062
0.0249114
0.0249376
0.0249569
0.0249609
0.0249682
0.0249826
0.0249872
0.024988
0.0249954
0.0250043
0.025008
0.0250149
0.0250269
0.0250389
0.0250515
0.0250695
0.0250918
0.0251152
0.0251441
0.0251769
0.0252145
0.0252532
0.0252999
0.0253439
0.0253967
0.0254443
0.0255043
0.0255505
0.025619
0.0256652
0.0257419
0.0257847
0.0258766
0.0259147
0.0260207
0.026056
0.0261808
0.0262101
0.026355
0.0263832
0.0265451
0.0265736
0.0267533
0.0267825
0.0269725
0.0270095
0.0272043
0.0272448
0.0274419
0.0274933
0.027681
0.0277402
0.0279239
0.0279911
0.0281584
0.0282353
0.0283939
0.028473
0.0286146
0.0287001
0.0288291
0.0289098
0.0290217
0.0290995
0.029194
0.0292589
0.0293324
0.0293843
0.0294368
0.0294682
0.0294971
0.0295116
0.0295175
0.0295078
0.0294941
0.0294683
0.0294308
0.0293859
0.0293371
0.0292759
0.0292077
0.0291382
0.0290615
0.0289754
0.0288888
0.0287994
0.0287014
0.0286
0.028499
0.0283924
0.0282808
0.0281694
0.028057
0.0279408
0.0278241
0.0277091
0.0275941
0.0274787
0.0273657
0.0272555
0.0271471
0.0270405
0.0269374
0.0268379
0.026741
0.0266467
0.0265568
0.0264713
0.0263887
0.0263098
0.0262364
0.0261674
0.0261013
0.0260395
0.0259826
0.0259285
0.0258765
0.0258283
0.0257831
0.0257392
0.0256973
0.0256585
0.0256214
0.0255854
0.0255516
0.0255202
0.0254897
0.0254604
0.025433
0.0254069
0.0253808
0.0253551
0.02533
0.0253043
0.0252775
0.0252502
0.0252225
0.025194
0.0251652
0.0251368
0.0251092
0.0250823
0.0250569
0.0250338
0.0250132
0.0249954
0.0249811
0.0249705
0.0249633
0.0249592
0.0249581
0.0249597
0.0249635
0.0249695
0.0249776
0.0249878
0.0249999
0.025014
0.0250298
0.0250469
0.0250645
0.0250822
0.0250992
0.0251149
0.0251289
0.0251411
0.0251513
0.0251597
0.0251665
0.0251722
0.0251776
0.025184
0.0251935
0.0252092
0.025236
0.0252804
0.0253511
0.0254585
0.0256146
0.0258311
0.0261183
0.0264825
0.0269239
0.0274345
0.0279974
0.0285867
0.0291695
0.0297084
0.0301666
0.0305139
0.0307343
0.0308331
0.0308383
0.0307958
0.0307535
0.0307429
0.0307665
0.0308003
0.0308123
0.0307845
0.0307247
0.0306599
0.0306171
0.0306068
0.0306216
0.0306499
0.0306895
0.0307483
0.0308326
0.0309362
0.0310416
0.0311313
0.0311988
0.0312476
0.0312836
0.0313092
0.0313241
0.0313294
0.03133
0.0313326
0.0313415
0.0313567
0.0313747
0.0313914
0.0314052
0.0314169
0.0314284
0.0314398
0.03145
0.0314573
0.0314609
0.0314606
0.0314566
0.0314484
0.0314357
0.0314179
0.0313954
0.0313682
0.0313363
0.0312993
0.0312573
0.031211
0.0311616
0.0311105
0.0310591
0.031009
0.0309618
0.0309192
0.0308825
0.0308525
0.0308292
0.030812
0.0307999
0.0307914
0.0307847
0.0307782
0.0307706
0.0307613
0.0307504
0.0307388
0.0307278
0.0307192
0.0307144
0.0307146
0.0307203
0.0307317
0.0307492
0.0307729
0.0308029
0.0308392
0.0308816
0.030929
0.0309799
0.0310323
0.0310836
0.0311317
0.0311743
0.0312101
0.0312383
0.0312592
0.0312732
0.0312816
0.0312857
0.031287
0.0312868
0.0312862
0.0312863
0.0312881
0.031293
0.0313023
0.0313172
0.0313385
0.0313666
0.0314011
0.0314411
0.0314853
0.0315322
0.0315801
0.0316275
0.0316727
0.0317144
0.0317517
0.0317838
0.0318104
0.0318311
0.031846
0.0318552
0.0318591
0.0318586
0.0318544
0.0318473
0.0318377
0.0318256
0.0318107
0.0317926
0.0317715
0.031748
0.0317234
0.0316986
0.0316749
0.0316528
0.0316326
0.0316143
0.0315981
0.0315846
0.0315744
0.0315681
0.0315662
0.0315685
0.0315746
0.0315839
0.0315958
0.03161
0.0316269
0.0316471
0.0316714
0.0317006
0.0317351
0.0317749
0.0318197
0.0318684
0.0319202
0.0319734
0.0320266
0.0320779
0.0321258
0.032169
0.0322068
0.032239
0.0322665
0.0322903
0.0323112
0.0323304
0.0323477
0.0323623
0.0323724
0.0323763
0.0323724
0.0323598
0.0323394
0.032313
0.0322824
0.03225
0.032218
0.0321875
0.0321599
0.0321364
0.0321364
0.04
0.0253295
0.0258654
0.0255269
0.0258695
0.0262439
0.0263806
0.0263826
0.0263081
0.0263915
0.0267917
0.0267129
0.026354
0.026398
0.0266937
0.026576
0.0262937
0.0262979
0.0263925
0.0262502
0.0260677
0.0260335
0.0259921
0.0258466
0.0257293
0.0256847
0.0256176
0.0255339
0.025501
0.0255013
0.0254853
0.0254793
0.0255016
0.0255236
0.0255303
0.0255458
0.0255682
0.025581
0.0255877
0.0256022
0.0256158
0.025623
0.0256315
0.025645
0.025656
0.0256666
0.0256821
0.0257009
0.0257203
0.0257441
0.0257737
0.0258053
0.0258412
0.0258812
0.0259248
0.025968
0.0260183
0.0260653
0.0261188
0.0261663
0.0262285
0.0262734
0.0263431
0.026388
0.0264701
0.0265086
0.0266079
0.0266429
0.026759
0.0267892
0.0269284
0.0269535
0.0271133
0.0271389
0.0273164
0.0273414
0.0275352
0.0275637
0.0277621
0.0277987
0.0280017
0.0280427
0.0282404
0.0282962
0.0284855
0.0285456
0.028726
0.0288004
0.0289636
0.0290408
0.0291951
0.0292794
0.0294127
0.029496
0.0296189
0.0296973
0.0297963
0.0298673
0.0299502
0.0300037
0.0300622
0.0301026
0.0301379
0.0301544
0.0301694
0.030168
0.030156