# vtk DataFile Version 3.0
LBM output step 1100
ASCII
DATASET STRUCTURED_POINTS
DIMENSIONS 400 100 1
ORIGIN 0 0 0
SPACING 1 1 1
POINT_DATA 40000
SCALARS velocity_magnitude double 1
LOOKUP_TABLE default
0
0
0
0
0
0
0
0
0
0
0
0
0
0
0
0
0
0
0
0
0
0
0
0
0
0
0
0
0
0
0
0
0
0
0
0
0
0
0
0
0
0
0
0
0
0
0
0
0
0
0
0
0
0
0
0
0
0
0
0
0
0
0
0
0
0
0
0
0
0
0
0
0
0
0
0
0
0
0
0
0
0
0
0
0
0
0
0
0
0
0
0
0
0
0
0
0
0
0
0
0
0
0
0
0
0
0
0
0
0
0
0
0
0
0
0
0
0
0
0
0
0
0
0
0
0
0
0
0
0
0
0
0
0
0
0
0
0
0
0
0
0
0
0
0
0
0
0
0
0
0
0
0
0
0
0
0
0
0
0
0
0
0
0
0
0
0
0
0
0
0
0
0
0
0
0
0
0
0
0
0
0
0
0
0
0
0
0
0
0
0
0
0
0
0
0
0
0
0
0
0
0
0
0
0
0
0
0
0
0
0
0
0
0
0
0
0
0
0
0
0
0
0
0
0
0
0
0
0
0
0
0
0
0
0
0
0
0
0
0
0
0
0
0
0
0
0
0
0
0
0
0
0
0
0
0
0
0
0
0
0
0
0
0
0
0
0
0
0
0
0
0
0
0
0
0
0
0
0
0
0
0
0
0
0
0
0
0
0
0
0
0
0
0
0
0
0
0
0
0
0
0
0
0
0
0
0
0
0
0
0
0
0
0
0
0
0
0
0
0
0
0
0
0
0
0
0
0
0
0
0
0
0
0
0
0
0
0
0
0
0
0
0
0
0
0
0
0
0
0
0
0
0
0
0
0
0
0
0
0
0
0
0
0
0
0
0
0
0
0
0
0
0
0
0
0
0
0
0
0
0
0
0
0
0
0
0
0
0
0
0
0
0
0
0
0
0
0
0
0
0.04
0.0135759
0.00795989
0.0126343
0.0150598
0.0146869
0.0116739
0.011057
0.0110886
0.0111448
0.0108142
0.0108277
0.0105708
0.010407
0.0102881
0.0102845
0.0101174
0.0100087
0.00991443
0.00984832
0.00972385
0.00965264
0.00957568
0.00950235
0.00941191
0.00935453
0.009283
0.00921118
0.00913365
0.00906887
0.00898858
0.00890909
0.00882734
0.00874973
0.00866349
0.00858254
0.00850321
0.00842794
0.00835232
0.00828448
0.00822028
0.00816
0.00810292
0.0080507
0.00800127
0.00795234
0.00790673
0.00786036
0.00781704
0.00776981
0.00772782
0.00768005
0.00763909
0.00758965
0.00755042
0.00750052
0.00746358
0.00741332
0.00738045
0.00733208
0.00730394
0.00725843
0.00723732
0.00719619
0.00718104
0.00714498
0.00713637
0.00710408
0.00709955
0.00707189
0.00707037
0.00704521
0.00704619
0.00702517
0.00702666
0.00700879
0.00701242
0.00699799
0.00700114
0.0069908
0.00699531
0.00698693
0.00699079
0.00698607
0.0069895
0.00698474
0.00698721
0.00698414
0.00698401
0.00697894
0.00697692
0.00697047
0.00696338
0.00695266
0.00694165
0.00692617
0.00690831
0.00688763
0.00686507
0.00683884
0.0068109
0.00678118
0.00674964
0.00671615
0.0066821
0.00664673
0.00661024
0.00657318
0.00653585
0.00649744
0.00645879
0.00642001
0.00638071
0.00634075
0.00630086
0.00626049
0.00621948
0.00617825
0.0061372
0.0060958
0.00605462
0.00601442
0.00597523
0.00593678
0.00590022
0.00586594
0.00583325
0.00580256
0.00577504
0.00574992
0.00572661
0.00570625
0.00568891
0.0056731
0.00565911
0.00564777
0.00563783
0.00562819
0.00561979
0.00561251
0.00560487
0.00559707
0.00559032
0.00558405
0.00557766
0.00557241
0.00556904
0.00556675
0.00556578
0.00556743
0.00557176
0.00557839
0.00558856
0.00560396
0.00562568
0.00565595
0.00569914
0.00576032
0.00584507
0.00596068
0.00611537
0.00631618
0.00656848
0.00687557
0.00723672
0.00764587
0.00809196
0.00855927
0.00902736
0.0094725
0.00987037
0.0101985
0.010439
0.0105829
0.0106332
0.0106055
0.0105249
0.0104211
0.0103191
0.0102327
0.0101617
0.010097
0.0100286
0.00995288
0.00987644
0.00981276
0.00977511
0.00976993
0.00979491
0.00984148
0.00989897
0.00995749
0.0100084
0.0100438
0.0100574
0.0100464
0.0100137
0.00996704
0.00991653
0.00987111
0.00983627
0.00981363
0.00980162
0.00979636
0.00979263
0.00978537
0.00977139
0.00975043
0.00972475
0.00969748
0.00967058
0.00964386
0.00961533
0.00958261
0.00954432
0.0095007
0.00945319
0.00940365
0.0093537
0.00930452
0.00925699
0.009212
0.00917068
0.00913434
0.00910433
0.00908168
0.00906678
0.00905919
0.00905776
0.00906095
0.009067
0.00907406
0.00908014
0.00908312
0.00908093
0.00907205
0.00905589
0.00903305
0.0090053
0.00897526
0.00894589
0.00891998
0.00889974
0.0088865
0.0088807
0.00888199
0.00888945
0.00890189
0.00891817
0.00893733
0.00895865
0.00898145
0.00900497
0.00902817
0.00904983
0.00906865
0.00908349
0.00909353
0.0090984
0.00909814
0.00909313
0.00908397
0.00907136
0.00905601
0.00903863
0.00901989
0.00900048
0.00898101
0.00896208
0.00894415
0.00892759
0.00891267
0.00889954
0.00888824
0.00887857
0.00887009
0.0088621
0.00885374
0.00884415
0.00883267
0.00881898
0.0088032
0.00878577
0.00876737
0.00874883
0.00873094
0.0087145
0.00870023
0.00868877
0.00868068
0.00867636
0.00867603
0.00867968
0.00868701
0.00869744
0.00871013
0.00872405
0.00873811
0.00875137
0.00876309
0.00877294
0.00878095
0.00878751
0.00879324
0.00879889
0.00880524
0.00881295
0.0088225
0.00883412
0.0088478
0.00886331
0.00888026
0.00889825
0.00891692
0.00893612
0.00895587
0.00897643
0.00899824
0.00902173
0.0090472
0.00907464
0.00910357
0.00913299
0.0091615
0.00918744
0.00920917
0.00922533
0.00923503
0.00923796
0.00923441
0.00922516
0.0092113
0.00919413
0.00917488
0.00915464
0.00913429
0.00911449
0.00909573
0.00907845
0.00906306
0.00904994
0.00903933
0.00903128
0.00902549
0.00902131
0.00901778
0.00901372
0.00900797
0.00899957
0.00898796
0.00897307
0.00895536
0.0089358
0.00891576
0.0088969
0.00888106
0.00887004
0.00886545
0.00886848
0.00887964
0.00889857
0.00892393
0.00895346
0.00898426
0.00901323
0.00903762
0.00905554
0.00906628
0.0090703
0.00906907
0.00906461
0.00905916
0.00905481
0.00905337
0.00905629
0.00906465
0.00907923
0.00910026
0.00912747
0.00915975
0.00919533
0.00923166
0.00926594
0.00929523
0.00931705
0.00932935
0.00933084
0.00932073
0.00929884
0.00926534
0.00922129
0.00916819
0.00910835
0.00904429
0.00897958
0.00891617
0.00885506
0.0087983
0.0087457
0.0087457
0.04
0.0225843
0.0241721
0.0216398
0.0145617
0.0137952
0.0168389
0.0174939
0.0158758
0.0152612
0.0153743
0.0152093
0.0148754
0.01483
0.0146783
0.0144154
0.0142497
0.0142009
0.0140481
0.0138832
0.0137877
0.0137148
0.0135979
0.0135125
0.0134617
0.0134042
0.013335
0.0132919
0.013253
0.0131988
0.0131407
0.0130907
0.013031
0.0129613
0.0128936
0.0128294
0.0127607
0.0126938
0.012635
0.0125809
0.0125295
0.0124847
0.012448
0.0124139
0.0123848
0.0123586
0.0123388
0.0123167
0.0123012
0.0122822
0.0122718
0.0122533
0.0122466
0.0122292
0.0122276
0.0122102
0.0122141
0.0121988
0.01221
0.0121963
0.0122165
0.0122077
0.0122371
0.0122322
0.0122727
0.0122732
0.0123211
0.0123265
0.012383
0.0123912
0.012452
0.0124659
0.0125306
0.0125464
0.0126144
0.0126364
0.0127039
0.0127291
0.0127991
0.012829
0.0128951
0.0129293
0.0129957
0.0130307
0.0130909
0.0131288
0.0131851
0.013219
0.0132674
0.0133002
0.0133399
0.0133641
0.0133938
0.0134112
0.0134276
0.013433
0.0134374
0.0134315
0.0134216
0.0134038
0.0133818
0.0133527
0.0133197
0.0132803
0.0132369
0.0131894
0.0131376
0.0130811
0.0130227
0.012961
0.0128951
0.0128275
0.0127592
0.0126867
0.0126125
0.0125392
0.0124636
0.0123855
0.0123095
0.012234
0.0121568
0.0120816
0.0120102
0.0119393
0.0118702
0.0118061
0.0117457
0.0116871
0.0116331
0.0115845
0.0115388
0.0114963
0.0114588
0.0114254
0.0113941
0.0113658
0.0113413
0.0113188
0.0112972
0.0112778
0.0112605
0.0112436
0.0112276
0.0112139
0.0112019
0.0111907
0.0111817
0.0111757
0.0111718
0.0111699
0.0111714
0.0111768
0.0111856
0.0111995
0.0112211
0.0112524
0.011297
0.0113608
0.0114507
0.011574
0.0117391
0.0119548
0.0122279
0.0125621
0.0129578
0.0134105
0.0139099
0.0144401
0.0149807
0.0155079
0.0159955
0.0164189
0.0167585
0.0170024
0.0171508
0.0172167
0.0172244
0.0172027
0.0171764
0.0171597
0.0171533
0.0171482
0.0171341
0.0171084
0.017078
0.0170573
0.01706
0.0170934
0.0171557
0.0172384
0.0173316
0.0174258
0.0175126
0.0175842
0.0176337
0.0176579
0.0176589
0.0176442
0.0176236
0.0176058
0.0175962
0.0175966
0.0176058
0.0176205
0.0176359
0.017647
0.0176505
0.0176461
0.0176357
0.0176223
0.0176079
0.0175923
0.0175735
0.0175494
0.0175186
0.0174814
0.0174391
0.0173937
0.0173467
0.0172994
0.0172529
0.0172085
0.0171673
0.017131
0.017101
0.0170786
0.0170643
0.0170581
0.017059
0.0170658
0.0170767
0.01709
0.0171036
0.0171154
0.017123
0.0171249
0.0171201
0.017109
0.017093
0.0170744
0.0170558
0.01704
0.017029
0.0170243
0.0170265
0.0170354
0.0170501
0.0170697
0.0170928
0.0171186
0.0171462
0.0171747
0.0172033
0.017231
0.0172564
0.0172783
0.0172957
0.0173077
0.017314
0.0173147
0.0173102
0.0173013
0.0172888
0.0172735
0.0172564
0.0172384
0.0172201
0.0172023
0.0171855
0.0171701
0.0171562
0.0171441
0.0171336
0.0171247
0.0171169
0.0171098
0.0171026
0.0170944
0.0170845
0.0170722
0.0170574
0.0170403
0.0170216
0.017002
0.0169826
0.0169642
0.0169479
0.0169344
0.0169244
0.0169185
0.016917
0.0169201
0.0169279
0.0169399
0.0169555
0.0169739
0.0169941
0.017015
0.0170356
0.0170552
0.0170734
0.01709
0.0171053
0.0171198
0.017134
0.0171485
0.0171639
0.0171805
0.0171985
0.0172179
0.0172384
0.0172598
0.0172817
0.0173038
0.017326
0.0173483
0.017371
0.0173945
0.017419
0.0174449
0.0174721
0.0175001
0.017528
0.0175545
0.0175781
0.0175976
0.0176116
0.0176197
0.0176216
0.0176178
0.0176089
0.0175962
0.0175807
0.0175636
0.0175459
0.0175284
0.0175116
0.0174961
0.0174821
0.0174703
0.0174608
0.017454
0.01745
0.0174484
0.0174486
0.0174496
0.0174503
0.0174496
0.0174466
0.0174407
0.0174321
0.0174211
0.0174089
0.0173968
0.0173864
0.0173794
0.0173776
0.0173823
0.0173945
0.0174146
0.0174421
0.0174756
0.0175127
0.0175506
0.0175861
0.0176167
0.0176404
0.0176566
0.0176659
0.0176698
0.0176702
0.0176696
0.0176699
0.0176728
0.0176798
0.0176918
0.0177093
0.0177325
0.0177609
0.0177935
0.0178284
0.0178632
0.0178951
0.0179215
0.0179399
0.0179486
0.0179463
0.0179323
0.0179067
0.0178698
0.0178226
0.0177669
0.0177051
0.0176397
0.017573
0.0175077
0.0174471
0.0173898
0.0173362
0.0173362
0.04
0.0234767
0.0215663
0.0186253
0.0197555
0.0218825
0.0209025
0.0192515
0.0194392
0.0199603
0.0194165
0.0188234
0.018708
0.0186119
0.0182793
0.0180771
0.0179553
0.0177669
0.0175519
0.0174443
0.0173326
0.0171896
0.0170732
0.0170126
0.016938
0.0168664
0.0168242
0.0167998
0.0167607
0.0167282
0.0167046
0.0166743
0.0166302
0.016589
0.0165467
0.0164976
0.0164466
0.0164029
0.0163616
0.0163223
0.0162901
0.0162658
0.0162458
0.0162299
0.0162214
0.0162158
0.0162149
0.0162143
0.0162208
0.0162246
0.016236
0.0162421
0.0162594
0.0162678
0.0162909
0.0163007
0.0163315
0.0163444
0.0163834
0.0163992
0.0164499
0.0164698
0.0165311
0.016556
0.0166305
0.0166584
0.0167436
0.0167767
0.0168717
0.0169061
0.0170103
0.0170487
0.0171577
0.0171985
0.0173141
0.0173576
0.0174741
0.0175227
0.0176414
0.0176916
0.0178086
0.0178647
0.017978
0.0180343
0.0181433
0.0182027
0.0183019
0.0183588
0.0184502
0.0185042
0.0185811
0.0186283
0.018693
0.0187304
0.0187766
0.0188023
0.0188328
0.0188435
0.0188543
0.0188514
0.018846
0.0188265
0.0188041
0.0187725
0.0187347
0.0186878
0.0186379
0.0185799
0.0185156
0.018447
0.0183746
0.0182948
0.0182123
0.0181274
0.0180376
0.0179442
0.0178508
0.0177547
0.0176559
0.0175579
0.0174607
0.0173624
0.0172659
0.0171729
0.0170818
0.0169929
0.016909
0.0168295
0.0167531
0.0166814
0.0166153
0.0165532
0.0164949
0.0164414
0.0163925
0.0163465
0.0163036
0.0162646
0.0162283
0.0161937
0.0161615
0.0161322
0.0161047
0.0160789
0.0160559
0.0160358
0.0160177
0.0160021
0.0159901
0.015981
0.0159747
0.0159723
0.0159746
0.0159823
0.015997
0.0160221
0.0160614
0.0161195
0.0162033
0.0163209
0.0164803
0.0166893
0.016955
0.0172814
0.0176684
0.0181111
0.0185996
0.019118
0.0196458
0.0201591
0.0206325
0.0210415
0.0213666
0.021597
0.0217338
0.0217913
0.021795
0.0217748
0.0217565
0.0217532
0.0217643
0.0217786
0.0217847
0.0217787
0.0217679
0.0217673
0.0217915
0.021847
0.0219312
0.0220348
0.0221474
0.0222599
0.0223646
0.0224544
0.0225226
0.0225662
0.0225875
0.0225942
0.022596
0.0226013
0.0226147
0.0226376
0.0226686
0.0227045
0.0227409
0.022773
0.0227975
0.0228139
0.0228241
0.0228311
0.0228365
0.0228403
0.0228407
0.0228356
0.0228242
0.0228067
0.0227845
0.0227594
0.0227328
0.0227058
0.0226796
0.0226553
0.022634
0.022617
0.0226055
0.0226007
0.022603
0.0226123
0.0226278
0.0226482
0.022672
0.0226974
0.0227227
0.0227457
0.0227645
0.0227777
0.0227846
0.0227854
0.0227815
0.022775
0.0227683
0.0227637
0.0227634
0.0227687
0.0227803
0.0227979
0.0228211
0.0228489
0.0228802
0.022914
0.0229496
0.0229861
0.0230226
0.0230581
0.0230913
0.0231212
0.0231467
0.0231672
0.0231822
0.0231918
0.0231964
0.0231965
0.0231931
0.0231869
0.0231788
0.0231697
0.0231603
0.0231513
0.0231431
0.023136
0.0231302
0.0231259
0.0231229
0.0231212
0.0231205
0.0231203
0.0231198
0.0231184
0.0231152
0.0231097
0.023102
0.0230921
0.0230807
0.0230685
0.0230564
0.0230453
0.0230358
0.0230288
0.0230247
0.023024
0.0230272
0.0230344
0.0230455
0.0230604
0.0230786
0.0230993
0.0231218
0.023145
0.0231682
0.0231908
0.0232123
0.0232326
0.0232518
0.0232702
0.0232883
0.0233065
0.0233252
0.0233448
0.0233653
0.0233868
0.0234093
0.0234325
0.0234562
0.0234804
0.0235048
0.0235295
0.0235549
0.0235811
0.0236084
0.023637
0.0236668
0.0236972
0.0237274
0.0237564
0.0237831
0.0238061
0.0238245
0.0238378
0.0238455
0.0238479
0.0238452
0.0238382
0.0238277
0.0238145
0.0237997
0.023784
0.0237684
0.0237535
0.0237403
0.0237294
0.0237215
0.0237171
0.0237161
0.0237183
0.0237228
0.0237286
0.0237343
0.0237386
0.0237406
0.0237396
0.0237355
0.023729
0.0237209
0.0237128
0.0237063
0.0237033
0.0237053
0.023714
0.0237302
0.0237544
0.023786
0.0238237
0.0238649
0.0239069
0.0239465
0.023981
0.0240086
0.0240285
0.0240412
0.0240482
0.0240514
0.0240528
0.0240545
0.0240579
0.0240644
0.0240748
0.0240899
0.02411
0.024135
0.0241641
0.0241958
0.0242281
0.0242588
0.0242854
0.0243057
0.0243179
0.024321
0.0243139
0.0242964
0.0242688
0.0242319
0.0241867
0.0241353
0.0240802
0.0240234
0.023966
0.0239107
0.0238574
0.0238065
0.0238065
0.04
0.0252708
0.0264883
0.0264778
0.0262043
0.0236234
0.022038
0.023042
0.0237411
0.0226182
0.0217334
0.0219417
0.0219567
0.0214513
0.0211143
0.0210799
0.0208746
0.020598
0.0204516
0.0203575
0.0201646
0.0200143
0.0199337
0.0198477
0.0197321
0.0196736
0.0196416
0.0196007
0.0195623
0.019558
0.0195496
0.0195299
0.0195127
0.0195034
0.0194799
0.0194517
0.0194283
0.0194081
0.0193833
0.0193649
0.0193546
0.019348
0.0193442
0.0193481
0.0193577
0.0193688
0.0193844
0.0194031
0.0194259
0.0194477
0.0194755
0.0195011
0.0195343
0.0195621
0.0196009
0.0196316
0.0196781
0.0197118
0.0197666
0.0198049
0.019871
0.0199126
0.0199905
0.0200376
0.0201277
0.0201769
0.0202804
0.0203328
0.0204466
0.0205005
0.0206265
0.0206801
0.0208145
0.0208704
0.0210123
0.0210671
0.0212156
0.0212734
0.0214231
0.0214822
0.0216353
0.0216965
0.0218448
0.0219098
0.0220555
0.0221198
0.0222555
0.0223229
0.0224486
0.0225107
0.0226226
0.0226828
0.0227776
0.0228271
0.0229048
0.0229451
0.0230008
0.0230268
0.0230633
0.0230741
0.0230892
0.0230848
0.0230801
0.0230595
0.0230372
0.0230003
0.0229597
0.0229094
0.0228528
0.0227863
0.0227167
0.0226389
0.022554
0.0224649
0.0223722
0.0222718
0.0221686
0.022064
0.0219549
0.0218427
0.0217319
0.0216203
0.0215073
0.0213967
0.0212894
0.0211832
0.0210799
0.0209818
0.0208878
0.0207972
0.0207113
0.0206309
0.0205547
0.0204821
0.0204141
0.0203507
0.0202904
0.020233
0.0201796
0.0201296
0.0200816
0.0200364
0.019995
0.0199564
0.0199199
0.0198869
0.0198578
0.0198312
0.0198074
0.0197877
0.0197718
0.0197591
0.019751
0.0197495
0.0197555
0.0197714
0.019802
0.0198526
0.0199291
0.0200393
0.0201922
0.0203956
0.0206558
0.020977
0.0213598
0.0217989
0.0222836
0.0227984
0.0233227
0.0238317
0.0242998
0.0247025
0.02502
0.025241
0.0253672
0.0254137
0.0254071
0.0253784
0.0253543
0.0253482
0.0253576
0.0253699
0.0253724
0.0253611
0.0253441
0.025338
0.025358
0.0254107
0.0254921
0.0255919
0.0256995
0.0258066
0.0259068
0.0259934
0.0260599
0.026103
0.0261249
0.0261334
0.0261383
0.0261473
0.0261643
0.0261899
0.0262228
0.0262602
0.0262983
0.0263328
0.0263606
0.0263808
0.0263951
0.0264059
0.0264149
0.0264221
0.0264258
0.0264244
0.0264172
0.0264047
0.0263882
0.0263694
0.0263494
0.0263293
0.0263101
0.0262929
0.0262789
0.0262692
0.0262647
0.0262663
0.0262744
0.026289
0.0263094
0.0263343
0.0263624
0.0263921
0.0264216
0.0264491
0.0264727
0.0264913
0.0265042
0.0265117
0.0265149
0.0265154
0.0265153
0.0265167
0.0265215
0.0265312
0.0265466
0.0265677
0.0265942
0.0266254
0.0266605
0.0266983
0.0267381
0.0267788
0.0268196
0.0268593
0.0268968
0.0269311
0.0269614
0.0269869
0.0270072
0.0270224
0.0270327
0.0270387
0.0270411
0.0270407
0.0270386
0.0270354
0.0270321
0.0270292
0.0270271
0.0270259
0.0270259
0.027027
0.0270292
0.0270324
0.0270363
0.0270403
0.0270439
0.0270463
0.0270469
0.0270453
0.0270414
0.0270356
0.0270285
0.0270206
0.0270129
0.0270059
0.0270005
0.0269972
0.0269965
0.0269988
0.0270044
0.0270135
0.027026
0.027042
0.0270609
0.0270823
0.0271055
0.0271298
0.0271545
0.027179
0.0272031
0.0272264
0.0272491
0.027271
0.0272926
0.027314
0.0273355
0.0273573
0.0273795
0.0274024
0.0274259
0.02745
0.0274747
0.0274999
0.0275257
0.0275522
0.0275795
0.0276078
0.0276372
0.0276676
0.0276989
0.0277305
0.0277618
0.0277919
0.0278198
0.0278447
0.0278658
0.0278825
0.0278942
0.0279009
0.0279024
0.0278991
0.0278912
0.0278795
0.0278648
0.0278479
0.02783
0.0278121
0.0277955
0.0277813
0.0277704
0.0277634
0.0277605
0.0277614
0.0277651
0.0277706
0.0277763
0.0277808
0.0277831
0.0277825
0.0277789
0.0277727
0.027765
0.0277574
0.0277513
0.0277487
0.0277513
0.0277605
0.0277774
0.0278022
0.0278344
0.0278725
0.0279141
0.0279562
0.0279957
0.0280299
0.0280569
0.0280759
0.0280874
0.0280927
0.0280936
0.0280921
0.0280899
0.0280884
0.028089
0.0280925
0.0280997
0.0281113
0.0281274
0.0281474
0.0281705
0.028195
0.0282189
0.0282402
0.028257
0.0282675
0.0282705
0.028265
0.0282507
0.0282273
0.0281957
0.0281571
0.0281126
0.0280637
0.0280133
0.0279622
0.0279117
0.027862
0.0278145
0.0278145
0.04
0.0261319
0.0271863
0.0258242
0.0250892
0.0252036
0.0262309
0.0256021
0.0241614
0.0240352
0.0247043
0.0244107
0.0236349
0.0234734
0.023563
0.0233019
0.0229557
0.0228553
0.0227472
0.0225296
0.0223598
0.022282
0.022151
0.0220081
0.0219229
0.0218688
0.0217865
0.021732
0.0217155
0.0217049
0.0216845
0.0216871
0.0216969
0.0216968
0.0216908
0.0216948
0.0216942
0.0216882
0.0216857
0.0216913
0.0216956
0.021703
0.0217176
0.0217371
0.0217573
0.0217818
0.0218112
0.0218416
0.0218741
0.0219086
0.0219469
0.0219838
0.0220257
0.022066
0.0221129
0.0221561
0.0222096
0.0222564
0.0223181
0.0223701
0.0224412
0.0224973
0.0225806
0.0226411
0.022735
0.0227992
0.0229065
0.0229713
0.0230907
0.0231572
0.0232885
0.0233531
0.0234971
0.0235604
0.0237133
0.0237753
0.0239383
0.0239974
0.0241663
0.0242271
0.0243994
0.0244587
0.0246332
0.0246958
0.024865
0.0249281
0.0250935
0.0251581
0.0253102
0.0253749
0.025516
0.0255773
0.0256992
0.0257562
0.0258607
0.025908
0.0259894
0.0260267
0.0260876
0.0261098
0.0261467
0.0261562
0.0261724
0.0261633
0.0261585
0.0261359
0.0261096
0.0260683
0.0260259
0.0259689
0.0259055
0.0258346
0.0257578
0.0256696
0.0255778
0.0254806
0.0253758
0.0252656
0.0251541
0.0250376
0.0249172
0.0247968
0.0246764
0.0245542
0.0244333
0.0243155
0.0241997
0.024086
0.0239767
0.023872
0.0237706
0.023673
0.0235806
0.0234924
0.0234074
0.0233263
0.0232499
0.0231767
0.0231062
0.0230395
0.022977
0.0229171
0.0228602
0.0228077
0.0227589
0.0227128
0.0226703
0.0226322
0.0225973
0.0225653
0.0225375
0.0225143
0.0224953
0.0224821
0.0224773
0.0224834
0.0225036
0.0225437
0.0226107
0.0227118
0.0228552
0.0230496
0.023302
0.023616
0.0239918
0.0244251
0.0249054
0.025416
0.0259364
0.026442
0.0269061
0.0273035
0.0276141
0.0278266
0.0279424
0.0279772
0.0279595
0.0279219
0.0278919
0.0278833
0.0278931
0.0279068
0.0279094
0.0278963
0.0278763
0.0278666
0.0278836
0.0279337
0.0280124
0.0281083
0.0282104
0.0283113
0.0284054
0.0284868
0.0285493
0.0285893
0.0286091
0.0286161
0.02862
0.0286279
0.028643
0.0286656
0.0286945
0.0287275
0.0287615
0.0287925
0.0288172
0.0288346
0.0288461
0.0288537
0.0288591
0.0288623
0.0288621
0.0288571
0.0288468
0.028832
0.028814
0.028794
0.0287732
0.0287525
0.028733
0.0287158
0.0287019
0.0286921
0.0286871
0.0286875
0.0286937
0.0287057
0.028723
0.0287445
0.028769
0.028795
0.0288209
0.0288451
0.028866
0.0288828
0.0288947
0.0289021
0.0289055
0.0289063
0.028906
0.0289065
0.0289097
0.0289168
0.0289289
0.0289464
0.0289693
0.0289971
0.029029
0.0290641
0.0291013
0.0291396
0.0291778
0.0292149
0.02925
0.0292821
0.0293105
0.0293346
0.0293541
0.0293687
0.0293788
0.0293847
0.0293871
0.0293871
0.0293854
0.029383
0.0293806
0.0293788
0.0293778
0.0293778
0.0293786
0.0293803
0.0293828
0.0293859
0.0293894
0.0293929
0.0293958
0.0293974
0.0293972
0.029395
0.0293908
0.0293849
0.0293779
0.0293704
0.029363
0.0293565
0.0293514
0.0293481
0.029347
0.0293485
0.0293528
0.02936
0.0293702
0.0293834
0.0293992
0.0294174
0.0294374
0.0294589
0.0294813
0.0295041
0.0295271
0.0295499
0.0295724
0.0295944
0.0296159
0.0296371
0.0296578
0.0296784
0.0296988
0.0297193
0.0297401
0.0297613
0.0297832
0.0298058
0.0298292
0.0298536
0.0298791
0.0299057
0.0299333
0.0299618
0.0299909
0.03002
0.0300486
0.0300761
0.0301018
0.030125
0.0301453
0.0301619
0.0301744
0.0301822
0.0301849
0.0301822
0.0301743
0.0301615
0.0301443
0.0301237
0.0301011
0.0300777
0.0300551
0.0300348
0.0300179
0.0300053
0.0299973
0.0299936
0.0299934
0.0299956
0.0299985
0.0300009
0.0300013
0.0299992
0.0299943
0.0299871
0.0299786
0.0299701
0.0299633
0.0299599
0.0299615
0.0299695
0.0299849
0.030008
0.0300381
0.0300738
0.0301126
0.0301517
0.0301879
0.0302185
0.0302416
0.0302565
0.0302635
0.0302637
0.0302588
0.0302507
0.030241
0.0302311
0.0302224
0.0302157
0.0302121
0.0302123
0.0302168
0.0302254
0.0302376
0.0302521
0.0302674
0.0302817
0.0302934
0.0303007
0.0303024
0.0302975
0.0302854
0.0302661
0.0302399
0.0302078
0.0301712
0.0301307
0.030088
0.0300438
0.0299994
0.0299559
0.0299143
0.0299143
0.04
0.0241151
0.0246073
0.0258076
0.0265618
0.026428
0.0260894
0.0254422
0.025761
0.026161
0.0256611
0.0249979
0.0251287
0.0253135
0.0249551
0.0245832
0.0245733
0.0245389
0.0242907
0.0241086
0.0240474
0.0239303
0.0237556
0.0236535
0.023578
0.0234682
0.0233692
0.0233271
0.0232892
0.0232482
0.0232345
0.0232482
0.0232532
0.0232595
0.0232783
0.023299
0.0233086
0.0233221
0.0233414
0.0233591
0.0233748
0.0233981
0.0234249
0.0234515
0.0234807
0.0235152
0.0235505
0.0235864
0.0236256
0.0236664
0.0237082
0.0237507
0.0237966
0.0238419
0.0238914
0.0239402
0.023995
0.024048
0.0241107
0.0241686
0.0242391
0.0243031
0.0243842
0.0244512
0.0245432
0.0246152
0.0247178
0.0247907
0.0249072
0.0249804
0.0251083
0.0251806
0.0253226
0.0253902
0.0255448
0.02561
0.0257749
0.0258351
0.0260119
0.0260691
0.0262508
0.0263078
0.0264958
0.0265504
0.0267369
0.0267958
0.0269788
0.0270357
0.0272105
0.0272723
0.0274332
0.0274911
0.027638
0.027696
0.0278206
0.0278713
0.0279774
0.0280199
0.0281001
0.0281324
0.0281909
0.0282082
0.0282434
0.0282474
0.0282586
0.028246
0.0282373
0.0282065
0.0281753
0.0281297
0.0280781
0.0280127
0.0279448
0.0278644
0.0277763
0.0276817
0.0275817
0.0274718
0.0273584
0.0272415
0.027119
0.0269927
0.0268668
0.0267391
0.0266101
0.0264827
0.0263578
0.0262342
0.0261132
0.0259962
0.025883
0.0257728
0.0256663
0.0255641
0.0254659
0.0253706
0.0252788
0.0251914
0.0251076
0.0250264
0.0249493
0.0248768
0.0248076
0.0247416
0.0246804
0.0246235
0.0245696
0.0245194
0.0244738
0.0244318
0.0243927
0.0243583
0.0243294
0.024306
0.0242903
0.0242861
0.024297
0.0243274
0.0243845
0.0244766
0.0246117
0.0247976
0.025042
0.0253492
0.0257189
0.0261463
0.0266212
0.0271273
0.0276428
0.028143
0.0286013
0.0289918
0.0292937
0.0294958
0.0296001
0.0296231
0.0295942
0.0295483
0.029514
0.0295047
0.029516
0.0295313
0.0295338
0.029518
0.0294936
0.0294797
0.0294936
0.0295415
0.0296175
0.029709
0.0298046
0.0298978
0.0299845
0.03006
0.0301184
0.0301557
0.0301737
0.0301801
0.0301839
0.0301918
0.0302061
0.0302261
0.0302508
0.0302786
0.0303073
0.0303337
0.0303547
0.0303691
0.0303776
0.030382
0.0303835
0.0303825
0.0303778
0.0303687
0.0303551
0.0303378
0.0303181
0.0302971
0.0302754
0.0302541
0.0302342
0.0302167
0.0302025
0.0301921
0.030186
0.0301844
0.0301876
0.0301957
0.0302083
0.0302245
0.0302433
0.0302633
0.0302833
0.0303019
0.030318
0.0303308
0.0303398
0.0303451
0.030347
0.0303462
0.030344
0.0303417
0.030341
0.0303432
0.0303495
0.0303608
0.0303773
0.0303988
0.0304248
0.0304543
0.0304861
0.030519
0.0305518
0.0305835
0.0306133
0.0306404
0.0306642
0.0306842
0.0307001
0.0307116
0.0307188
0.0307222
0.0307224
0.0307201
0.0307165
0.0307123
0.0307082
0.0307048
0.0307022
0.0307004
0.0306993
0.0306987
0.0306987
0.0306989
0.0306993
0.0306995
0.0306991
0.0306974
0.0306941
0.0306891
0.0306824
0.0306744
0.0306655
0.0306563
0.0306473
0.0306391
0.030632
0.0306264
0.0306226
0.0306208
0.0306212
0.030624
0.0306292
0.0306368
0.0306468
0.0306591
0.0306734
0.0306893
0.0307068
0.0307253
0.0307446
0.0307643
0.0307841
0.0308037
0.0308229
0.0308414
0.0308591
0.0308762
0.0308926
0.0309087
0.0309248
0.0309412
0.0309582
0.0309762
0.0309953
0.0310158
0.0310377
0.0310608
0.0310849
0.0311099
0.0311351
0.0311603
0.0311849
0.0312086
0.0312308
0.0312514
0.0312697
0.0312853
0.0312973
0.0313051
0.0313078
0.0313047
0.0312956
0.0312806
0.03126
0.0312349
0.0312067
0.031177
0.0311476
0.0311202
0.0310963
0.0310769
0.0310625
0.031053
0.0310476
0.0310452
0.0310444
0.0310436
0.0310417
0.0310378
0.0310316
0.0310235
0.0310143
0.0310053
0.0309979
0.0309939
0.0309948
0.0310017
0.0310157
0.0310368
0.0310645
0.0310973
0.0311328
0.031168
0.0312
0.0312262
0.0312446
0.0312544
0.031256
0.0312503
0.0312388
0.0312233
0.0312053
0.0311863
0.0311676
0.0311504
0.0311358
0.031125
0.0311186
0.0311168
0.0311193
0.0311253
0.0311335
0.0311424
0.0311503
0.0311558
0.0311575
0.0311541
0.0311452
0.0311307
0.0311109
0.0310863
0.0310583
0.0310274
0.0309942
0.0309591
0.030923
0.0308863
0.0308506
0.0308506
0.04
0.0241332
0.0248232
0.0253185
0.0255087
0.0255835
0.0257613
0.0261928
0.0265116
0.0259193
0.0256471
0.0261031
0.0262544
0.025737
0.0255217
0.0257336
0.0257022
0.0253862
0.0252701
0.0253022
0.0251782
0.0249876
0.0249099
0.0248475
0.0247048
0.0245841
0.0245239
0.0244532
0.0243669
0.0243291
0.0243218
0.0243071
0.0243008
0.0243247
0.0243499
0.0243658
0.0243892
0.0244224
0.024448
0.0244712
0.0245019
0.0245354
0.0245644
0.0245966
0.024634
0.0246708
0.0247067
0.0247465
0.0247882
0.024829
0.0248712
0.0249158
0.0249611
0.0250067
0.0250558
0.0251054
0.0251586
0.0252131
0.0252731
0.0253322
0.0254004
0.025466
0.0255418
0.0256122
0.0256993
0.0257733
0.0258696
0.0259475
0.0260564
0.0261332
0.0262553
0.0263316
0.0264663
0.0265382
0.0266883
0.0267541
0.0269169
0.0269785
0.0271538
0.0272082
0.0273954
0.0274481
0.0276401
0.0276903
0.027889
0.0279394
0.028133
0.0281864
0.0283771
0.0284302
0.0286072
0.0286644
0.0288281
0.0288821
0.0290257
0.0290787
0.0292017
0.0292469
0.0293453
0.029383
0.0294586
0.0294826
0.0295327
0.0295459
0.0295725
0.0295666
0.0295711
0.0295514
0.0295299
0.0294908
0.0294519
0.0293935
0.02933
0.0292573
0.0291768
0.0290828
0.0289859
0.0288812
0.0287674
0.028648
0.0285269
0.0283993
0.0282677
0.0281361
0.0280039
0.0278697
0.0277367
0.0276066
0.0274782
0.0273514
0.0272282
0.027109
0.0269925
0.0268788
0.0267693
0.0266637
0.0265609
0.0264611
0.026366
0.0262748
0.0261863
0.0261021
0.0260231
0.0259479
0.025876
0.0258091
0.0257471
0.0256881
0.0256325
0.0255819
0.0255351
0.0254916
0.0254532
0.0254217
0.0253978
0.0253842
0.025386
0.0254084
0.025457
0.0255401
0.025667
0.0258458
0.026083
0.0263835
0.0267482
0.0271718
0.0276433
0.0281469
0.028661
0.0291594
0.0296149
0.0300015
0.0302977
0.0304915
0.0305851
0.0305962
0.0305556
0.0304995
0.0304586
0.0304468
0.0304582
0.0304742
0.0304764
0.0304583
0.03043
0.030412
0.0304226
0.0304682
0.0305414
0.0306286
0.030718
0.0308038
0.0308837
0.0309541
0.0310093
0.0310448
0.0310621
0.0310682
0.0310721
0.0310798
0.0310925
0.0311093
0.0311289
0.0311509
0.031174
0.0311957
0.0312131
0.0312246
0.0312304
0.0312316
0.0312296
0.0312246
0.0312162
0.0312037
0.0311875
0.0311686
0.031148
0.0311266
0.031105
0.0310839
0.0310644
0.0310475
0.0310338
0.0310237
0.0310171
0.0310142
0.0310151
0.0310199
0.0310283
0.0310396
0.0310531
0.0310677
0.0310823
0.031096
0.0311079
0.0311174
0.0311243
0.0311283
0.0311295
0.031128
0.0311246
0.0311202
0.0311163
0.0311142
0.0311154
0.0311211
0.0311318
0.0311478
0.0311684
0.0311929
0.0312197
0.0312477
0.0312756
0.0313022
0.031327
0.0313492
0.0313686
0.0313846
0.0313969
0.0314053
0.0314098
0.0314108
0.0314087
0.0314044
0.0313988
0.0313929
0.0313874
0.0313825
0.0313784
0.0313749
0.0313719
0.0313691
0.0313664
0.0313638
0.0313611
0.031358
0.0313543
0.0313495
0.0313433
0.0313357
0.0313269
0.031317
0.0313066
0.031296
0.0312856
0.0312758
0.0312668
0.031259
0.0312526
0.0312476
0.0312443
0.0312427
0.0312429
0.0312452
0.0312496
0.031256
0.0312645
0.031275
0.0312875
0.0313015
0.031317
0.0313334
0.0313503
0.0313673
0.0313839
0.0313997
0.0314145
0.0314283
0.0314411
0.0314531
0.0314649
0.0314769
0.0314896
0.0315034
0.0315187
0.0315355
0.031554
0.0315738
0.0315948
0.0316164
0.0316383
0.03166
0.0316811
0.0317015
0.0317208
0.0317389
0.0317555
0.0317699
0.0317813
0.0317888
0.0317912
0.0317877
0.0317776
0.0317608
0.0317377
0.0317091
0.0316766
0.0316418
0.0316066
0.0315729
0.0315425
0.0315166
0.0314958
0.0314804
0.0314697
0.0314629
0.0314584
0.0314551
0.0314515
0.0314468
0.0314406
0.0314331
0.0314248
0.031417
0.031411
0.0314081
0.0314098
0.0314172
0.031431
0.0314512
0.0314772
0.0315076
0.0315399
0.0315713
0.031599
0.0316204
0.0316338
0.0316383
0.0316341
0.0316222
0.031604
0.0315811
0.0315551
0.0315276
0.0314999
0.0314736
0.0314502
0.0314307
0.0314161
0.0314067
0.0314025
0.0314026
0.0314061
0.0314117
0.0314178
0.0314228
0.0314253
0.0314241
0.0314186
0.0314089
0.0313954
0.0313788
0.0313595
0.0313381
0.0313147
0.0312895
0.0312628
0.0312345
0.0312061
0.0312061
0.04
0.0247983
0.0253132
0.0249797
0.0253491
0.0257596
0.0259159
0.0259359
0.0258773
0.0259736
0.0263874
0.0263223
0.0259705
0.0260165
0.0263164
0.0262069
0.0259336
0.0259458
0.0260514
0.0259229
0.0257545
0.0257311
0.0256989
0.0255581
0.0254379
0.02538
0.0252916
0.0251784
0.0251106
0.025075
0.0250271
0.0249956
0.025001
0.0250153
0.0250234
0.0250467
0.0250824
0.0251124
0.025139
0.0251749
0.0252116
0.0252429
0.025276
0.0253144
0.0253504
0.025385
0.0254232
0.0254631
0.0255011
0.0255406
0.0255827
0.0256246
0.025667
0.0257119
0.0257585
0.0258058
0.025857
0.02591
0.0259662
0.0260249
0.0260895
0.0261533
0.0262249
0.0262962
0.0263768
0.0264508
0.0265425
0.0266216
0.0267228
0.0268026
0.0269185
0.0269961
0.0271246
0.0271997
0.0273429
0.0274104
0.0275699
0.027631
0.027803
0.0278584
0.0280453
0.0280935
0.0282893
0.028338
0.02854
0.0285846
0.0287889
0.0288387
0.0290365
0.0290855
0.0292773
0.0293315
0.0295052
0.0295584
0.0297184
0.029771
0.0299049
0.0299536