# vtk DataFile Version 3.0
LBM output step 420
ASCII
DATASET STRUCTURED_POINTS
DIMENSIONS 400 100 1
ORIGIN 0 0 0
SPACING 1 1 1
POINT_DATA 40000
SCALARS velocity_magnitude double 1
LOOKUP_TABLE default
0
0
0
0
0
0
0
0
0
0
0
0
0
0
0
0
0
0
0
0
0
0
0
0
0
0
0
0
0
0
0
0
0
0
0
0
0
0
0
0
0
0
0
0
0
0
0
0
0
0
0
0
0
0
0
0
0
0
0
0
0
0
0
0
0
0
0
0
0
0
0
0
0
0
0
0
0
0
0
0
0
0
0
0
0
0
0
0
0
0
0
0
0
0
0
0
0
0
0
0
0
0
0
0
0
0
0
0
0
0
0
0
0
0
0
0
0
0
0
0
0
0
0
0
0
0
0
0
0
0
0
0
0
0
0
0
0
0
0
0
0
0
0
0
0
0
0
0
0
0
0
0
0
0
0
0
0
0
0
0
0
0
0
0
0
0
0
0
0
0
0
0
0
0
0
0
0
0
0
0
0
0
0
0
0
0
0
0
0
0
0
0
0
0
0
0
0
0
0
0
0
0
0
0
0
0
0
0
0
0
0
0
0
0
0
0
0
0
0
0
0
0
0
0
0
0
0
0
0
0
0
0
0
0
0
0
0
0
0
0
0
0
0
0
0
0
0
0
0
0
0
0
0
0
0
0
0
0
0
0
0
0
0
0
0
0
0
0
0
0
0
0
0
0
0
0
0
0
0
0
0
0
0
0
0
0
0
0
0
0
0
0
0
0
0
0
0
0
0
0
0
0
0
0
0
0
0
0
0
0
0
0
0
0
0
0
0
0
0
0
0
0
0
0
0
0
0
0
0
0
0
0
0
0
0
0
0
0
0
0
0
0
0
0
0
0
0
0
0
0
0
0
0
0
0
0
0
0
0
0
0
0
0
0
0
0
0
0
0
0
0
0
0
0
0
0
0
0
0
0
0
0
0
0
0
0
0
0
0
0
0
0
0
0
0
0
0
0
0
0
0.04
0.0153116
0.010176
0.0160333
0.018495
0.0180316
0.0151238
0.0147992
0.0149295
0.0150236
0.0147195
0.0148319
0.014691
0.014615
0.0145322
0.0145282
0.0143175
0.0141041
0.0138906
0.0136756
0.0134239
0.01319
0.0130044
0.0127738
0.0125777
0.012345
0.0121666
0.0119266
0.0117659
0.0115789
0.0114553
0.0112811
0.011135
0.0109314
0.0107322
0.010514
0.0103393
0.0101875
0.010068
0.00994676
0.00980344
0.009616
0.00939388
0.00916529
0.00896335
0.00881802
0.00873678
0.00870935
0.00870303
0.00868482
0.00862672
0.00852375
0.00838488
0.00823593
0.00810426
0.00801423
0.00797555
0.00798836
0.00804481
0.00813456
0.00824458
0.00836525
0.00849228
0.00862203
0.00875035
0.00887803
0.00900554
0.00912907
0.00924704
0.00935975
0.00946409
0.00955791
0.00964371
0.00972267
0.00979503
0.00986366
0.00993228
0.00999967
0.0100648
0.0101287
0.0101893
0.0102416
0.0102857
0.0103216
0.0103479
0.0103643
0.0103746
0.0103814
0.0103854
0.0103883
0.0103949
0.010405
0.0104183
0.010436
0.0104587
0.0104849
0.0105143
0.0105457
0.0105793
0.0106131
0.0106467
0.0106804
0.0107132
0.0107434
0.0107721
0.0107986
0.0108218
0.0108409
0.0108563
0.0108662
0.0108692
0.0108651
0.0108527
0.0108299
0.0107971
0.010754
0.0107008
0.0106393
0.0105728
0.0105038
0.0104362
0.0103751
0.0103239
0.0102837
0.0102573
0.0102444
0.0102415
0.0102467
0.0102589
0.0102751
0.0102932
0.0103153
0.0103442
0.0103803
0.0104257
0.0104842
0.0105552
0.010635
0.0107224
0.0108155
0.0109096
0.0110025
0.0110959
0.0111906
0.0112878
0.0113909
0.0115015
0.0116178
0.0117373
0.0118554
0.0119643
0.0120564
0.0121253
0.012167
0.0121796
0.0121642
0.0121261
0.0120722
0.0120094
0.0119454
0.0118884
0.011843
0.0118116
0.0117962
0.0117972
0.0118123
0.0118396
0.0118779
0.0119251
0.0119781
0.0120359
0.0120985
0.0121649
0.0122345
0.0123068
0.0123812
0.0124568
0.0125324
0.0126081
0.0126839
0.0127589
0.012833
0.0129067
0.0129802
0.0130545
0.0131319
0.013214
0.0133011
0.0133944
0.0134957
0.0136032
0.0137123
0.0138206
0.0139296
0.0140395
0.0141457
0.014246
0.0143455
0.0144482
0.0145503
0.0146467
0.0147412
0.0148404
0.0149423
0.015041
0.0151414
0.0152566
0.0153869
0.0155121
0.0156186
0.0157237
0.0158547
0.0160024
0.0161194
0.0161809
0.0162344
0.01636
0.0165737
0.0167934
0.016922
0.0169555
0.0169871
0.0171055
0.0173133
0.0175533
0.0178048
0.0181153
0.0185008
0.0188247
0.0188286
0.0183349
0.017441
0.0164928
0.0158451
0.0156044
0.0155422
0.0152537
0.0145052
0.0135423
0.0130851
0.0139583
0.0165177
0.0201051
0.0229599
0.0231362
0.0200269
0.0148933
0.0097067
0.00571464
0.00313115
0.00163349
0.000823353
0.000404329
0.000194298
9.15668e-05
4.23699e-05
1.92674e-05
8.61997e-06
3.80005e-06
1.65513e-06
7.15319e-07
3.08192e-07
1.33431e-07
5.88348e-08
2.63897e-08
1.20038e-08
5.63712e-09
2.9682e-09
1.47853e-09
6.33666e-10
9.71495e-10
3.38582e-10
4.71689e-10
5.33016e-10
1.40849e-11
2.75068e-10
1.28283e-10
4.72869e-11
1.00862e-10
2.34653e-11
1.21397e-10
3.87578e-11
1.17764e-10
9.67235e-11
3.74007e-11
8.59574e-11
3.336e-11
2.04162e-11
2.9376e-11
2.21187e-11
2.16589e-11
1.41257e-11
2.19474e-11
2.34292e-11
6.38785e-12
2.5081e-11
1.35419e-11
9.24451e-12
1.17059e-11
2.907e-12
9.97514e-12
3.29755e-12
3.44418e-12
1.88813e-12
2.35746e-12
2.55186e-12
3.34199e-13
6.86551e-13
1.93975e-13
7.02244e-13
5.1734e-13
1.94279e-13
1.43317e-13
2.11224e-13
2.17778e-13
1.56307e-13
9.6546e-14
5.62265e-14
3.57975e-14
1.93298e-14
1.55825e-14
7.91549e-15
8.38874e-15
8.1981e-15
9.83686e-15
1.81173e-14
3.29975e-14
4.12225e-14
5.16451e-14
5.76973e-14
6.08681e-14
5.80756e-14
5.40985e-14
4.74676e-14
4.25839e-14
3.53739e-14
2.91816e-14
2.21761e-14
1.6667e-14
1.15714e-14
8.35053e-15
4.71551e-15
5.00529e-15
2.1744e-15
4.04609e-15
2.48973e-15
4.0357e-15
3.00681e-15
3.5968e-15
2.7717e-15
3.30254e-15
2.59949e-15
2.63199e-15
2.43529e-15
2.67137e-15
2.94857e-15
3.39538e-15
3.10553e-15
2.45109e-15
2.47026e-15
2.66104e-15
2.98913e-15
3.14516e-15
3.38233e-15
2.3907e-15
2.19963e-15
2.00154e-15
2.0835e-15
2.43971e-15
2.54941e-15
2.31527e-15
2.33866e-15
2.37554e-15
2.29704e-15
2.35077e-15
2.07354e-15
2.17854e-15
2.14177e-15
1.93732e-15
1.57463e-15
1.47478e-15
1.59261e-15
1.5971e-15
1.32622e-15
8.63084e-16
6.54614e-16
6.13808e-16
4.15016e-16
4.32778e-16
3.20394e-16
2.21012e-16
4.235e-17
3.55479e-16
7.29409e-17
1.57201e-16
2.50666e-16
2.23477e-16
2.75488e-16
2.49824e-16
2.49824e-16
0.04
0.0236742
0.0246364
0.0222916
0.0158758
0.0160074
0.0193968
0.0201219
0.018678
0.0184195
0.0189398
0.0191665
0.0191883
0.0194696
0.0195999
0.0195323
0.0194642
0.0194442
0.0192948
0.0190779
0.0189435
0.0187925
0.0186545
0.0184607
0.018383
0.0181897
0.0180962
0.0179029
0.0178634
0.0176966
0.0176692
0.0175302
0.0174854
0.0173121
0.0172158
0.0170533
0.0169692
0.0168639
0.0168243
0.0167555
0.0166836
0.0165588
0.016418
0.0162589
0.0161284
0.0160413
0.0160135
0.0160242
0.0160502
0.0160557
0.0160189
0.0159303
0.0158038
0.0156639
0.0155411
0.0154588
0.0154302
0.0154581
0.0155369
0.0156537
0.0157971
0.0159583
0.0161273
0.0162984
0.0164712
0.0166424
0.0168092
0.0169741
0.0171357
0.0172897
0.0174386
0.0175841
0.0177226
0.0178548
0.0179861
0.0181143
0.0182367
0.0183563
0.0184748
0.0185854
0.0186873
0.0187843
0.0188745
0.0189535
0.019025
0.0190922
0.0191538
0.0192089
0.0192616
0.0193134
0.0193634
0.0194112
0.0194599
0.0195093
0.0195582
0.0196061
0.0196544
0.0197017
0.0197473
0.0197901
0.0198302
0.0198668
0.0198998
0.0199276
0.0199501
0.0199675
0.0199788
0.0199827
0.0199808
0.0199716
0.0199526
0.0199261
0.0198933
0.0198496
0.019796
0.0197378
0.0196723
0.0195972
0.0195202
0.0194444
0.0193662
0.0192908
0.019226
0.0191688
0.0191187
0.0190827
0.0190599
0.0190439
0.0190377
0.0190435
0.0190559
0.0190733
0.0191005
0.0191373
0.0191808
0.0192335
0.0192982
0.0193722
0.0194527
0.0195408
0.0196358
0.0197341
0.0198359
0.0199429
0.0200549
0.0201719
0.0202942
0.0204203
0.0205465
0.0206676
0.0207774
0.0208698
0.0209383
0.020978
0.0209889
0.0209728
0.0209322
0.0208744
0.0208087
0.0207415
0.0206791
0.0206289
0.0205945
0.0205767
0.0205754
0.0205901
0.0206187
0.0206576
0.0207056
0.0207615
0.0208226
0.0208881
0.0209578
0.0210306
0.0211051
0.021181
0.0212579
0.0213351
0.021412
0.0214885
0.0215637
0.021637
0.0217086
0.0217797
0.0218519
0.0219266
0.0220053
0.0220884
0.0221753
0.022267
0.0223636
0.0224616
0.0225581
0.022653
0.0227457
0.0228325
0.0229115
0.0229869
0.0230636
0.023139
0.0232078
0.0232718
0.0233367
0.0234012
0.0234605
0.0235195
0.023591
0.0236747
0.0237502
0.0238021
0.0238447
0.023905
0.0239792
0.0240277
0.0240261
0.024011
0.0240477
0.02415
0.02425
0.0242688
0.0242066
0.0241442
0.024155
0.0242333
0.0243211
0.0243968
0.024503
0.0246604
0.0247532
0.0245414
0.0238474
0.0227545
0.021605
0.0207665
0.020348
0.0200977
0.0195906
0.0186063
0.0174254
0.0167751
0.0174321
0.0196983
0.0229118
0.0253458
0.0250736
0.0214918
0.0158952
0.0103188
0.00605251
0.00330376
0.00171679
0.00086167
0.000421077
0.000201131
9.40526e-05
4.30662e-05
1.92982e-05
8.45361e-06
3.6129e-06
1.50088e-06
6.02515e-07
2.30631e-07
8.1561e-08
2.4699e-08
4.219e-09
2.73506e-09
4.10466e-09
3.73398e-09
2.34555e-09
2.22611e-09
1.4833e-09
7.95419e-10
9.95498e-10
5.64396e-10
2.17582e-10
1.94398e-10
2.44162e-10
2.57979e-10
5.55835e-11
1.69482e-10
5.81057e-11
9.30549e-11
9.02131e-11
6.50083e-11
8.55982e-11
1.96374e-11
4.61981e-11
2.29523e-11
1.18714e-11
1.70151e-11
1.14734e-11
2.63929e-11
1.84577e-11
1.08264e-11
2.1245e-11
3.11416e-12
1.64317e-11
1.27024e-11
3.94889e-12
8.98052e-12
9.24411e-13
6.83956e-12
3.50561e-12
2.06231e-12
1.6287e-12
1.57798e-12
2.19106e-12
1.07529e-12
6.98314e-13
5.69724e-13
7.75319e-13
6.79804e-13
4.42953e-13
2.9886e-13
2.55137e-13
2.63209e-13
2.6744e-13
2.70389e-13
2.60582e-13
2.37995e-13
2.07633e-13
1.82365e-13
1.62363e-13
1.46798e-13
1.28944e-13
1.08433e-13
8.32125e-14
5.76476e-14
3.57716e-14
2.45927e-14
2.18486e-14
2.47368e-14
2.60361e-14
2.77947e-14
2.6687e-14
2.86772e-14
2.86997e-14
3.06344e-14
2.99309e-14
2.9215e-14
2.68061e-14
2.41715e-14
2.0894e-14
1.79365e-14
1.46176e-14
1.26164e-14
9.89842e-15
8.90281e-15
6.09558e-15
5.93795e-15
4.7178e-15
4.71311e-15
3.96448e-15
3.70992e-15
3.77589e-15
4.03944e-15
4.23683e-15
4.17028e-15
3.54027e-15
3.4628e-15
3.89619e-15
3.782e-15
3.67457e-15
3.86847e-15
3.37115e-15
2.95607e-15
2.80684e-15
2.89774e-15
3.06743e-15
3.04709e-15
2.86021e-15
2.8173e-15
2.89335e-15
2.7353e-15
2.98846e-15
2.63382e-15
2.66649e-15
2.47967e-15
2.41379e-15
2.36416e-15
1.87551e-15
1.71796e-15
1.51995e-15
1.1073e-15
7.59421e-16
7.25679e-16
8.30192e-16
5.54558e-16
4.89401e-16
1.89808e-16
2.49824e-16
2.10753e-16
2.78616e-16
1.21827e-16
1.00853e-16
3.84248e-16
3.11864e-16
2.2345e-16
2.38005e-16
2.38005e-16
0.04
0.0250597
0.0228983
0.0198482
0.0209831
0.02315
0.0221206
0.0206555
0.0211405
0.021943
0.0216838
0.0214934
0.0218581
0.0222255
0.0222857
0.0223998
0.02253
0.0225209
0.0224289
0.0223869
0.022355
0.0222347
0.0221802
0.022093
0.0220842
0.0219368
0.0219501
0.0218158
0.0218499
0.0217073
0.0217706
0.0216426
0.0216717
0.0215263
0.0215239
0.0213878
0.0213751
0.0212957
0.0213092
0.0212623
0.0212492
0.0211769
0.0211073
0.02101
0.0209457
0.0209098
0.0209285
0.0209819
0.0210561
0.0211163
0.0211416
0.0211172
0.02105
0.0209577
0.0208645
0.0207911
0.0207558
0.0207668
0.0208203
0.0209107
0.0210325
0.0211745
0.0213258
0.0214843
0.0216462
0.021804
0.0219587
0.0221127
0.0222618
0.0224064
0.0225522
0.022698
0.0228421
0.0229884
0.0231369
0.0232812
0.0234214
0.0235576
0.0236851
0.0238007
0.0239089
0.0240099
0.0241017
0.0241882
0.0242754
0.0243609
0.0244436
0.0245257
0.0246089
0.0246895
0.024766
0.0248392
0.0249102
0.0249766
0.025038
0.0250954
0.0251505
0.0252003
0.0252442
0.0252845
0.0253205
0.0253483
0.0253707
0.025387
0.0253942
0.0253931
0.025386
0.0253695
0.0253429
0.0253098
0.0252704
0.0252206
0.0251654
0.0251083
0.0250439
0.0249734
0.0249032
0.0248292
0.0247479
0.0246646
0.0245797
0.0244882
0.0243946
0.0243044
0.0242162
0.0241323
0.0240604
0.0240016
0.0239541
0.02392
0.0238997
0.0238882
0.0238818
0.0238811
0.023885
0.0238913
0.0239021
0.0239214
0.0239503
0.0239889
0.0240391
0.0241008
0.0241716
0.0242495
0.024334
0.0244226
0.024514
0.0246071
0.0246994
0.0247881
0.0248702
0.0249403
0.0249939
0.0250266
0.0250339
0.0250156
0.024974
0.0249115
0.0248338
0.0247494
0.0246642
0.0245834
0.0245129
0.0244565
0.0244147
0.0243869
0.024372
0.0243683
0.024373
0.0243851
0.0244037
0.0244267
0.0244533
0.0244827
0.0245136
0.0245452
0.0245772
0.0246095
0.0246416
0.024673
0.0247025
0.0247295
0.0247542
0.0247772
0.0248001
0.0248252
0.0248538
0.0248854
0.024919
0.0249545
0.0249927
0.0250322
0.0250704
0.0251062
0.0251385
0.0251645
0.0251824
0.0251952
0.025207
0.0252165
0.0252199
0.0252181
0.0252165
0.0252145
0.0252067
0.0251957
0.0251936
0.0252033
0.0252071
0.025187
0.025152
0.0251279
0.0251192
0.0250974
0.0250385
0.0249618
0.0249125
0.0249046
0.0248965
0.0248368
0.0247278
0.02463
0.0245948
0.0246055
0.0246013
0.0245596
0.0245276
0.0245469
0.0245406
0.0243011
0.0236432
0.0226086
0.021501
0.0206757
0.0202394
0.0199352
0.0193537
0.0183203
0.0171329
0.0164623
0.0170095
0.0190763
0.0221115
0.0245336
0.0244577
0.0211702
0.0158108
0.0103509
0.00611243
0.0033546
0.00175146
0.000883167
0.000433809
0.0002085
9.82725e-05
4.54774e-05
2.06805e-05
9.2496e-06
4.07594e-06
1.77457e-06
7.65642e-07
3.29613e-07
1.42909e-07
6.2308e-08
2.77265e-08
1.29628e-08
6.36076e-09
2.80209e-09
1.32291e-09
8.94165e-10
3.72862e-10
1.57209e-10
4.03093e-10
1.21179e-10
2.84718e-10
1.9542e-10
1.42308e-10
1.02133e-10
1.61256e-10
7.46352e-11
8.81446e-11
3.68791e-11
5.56856e-11
2.50661e-11
7.58207e-11
4.42353e-11
2.37993e-11
4.17308e-11
2.66265e-11
1.14924e-11
2.94238e-11
2.08239e-11
1.7902e-11
1.72595e-11
1.33956e-11
1.72366e-11
6.30654e-12
1.24753e-11
6.98599e-12
6.10757e-12
6.63771e-12
2.28804e-12
4.0548e-12
7.85651e-13
2.42584e-12
1.35293e-12
1.16812e-12
6.00986e-13
4.45582e-13
6.61356e-13
4.75774e-13
3.49079e-13
1.71132e-13
1.2764e-13
1.08002e-13
1.20529e-13
1.50782e-13
1.79473e-13
1.87132e-13
1.76582e-13
1.57841e-13
1.43756e-13
1.32925e-13
1.23965e-13
1.07251e-13
8.51801e-14
5.45418e-14
2.46943e-14
5.47508e-15
1.4729e-14
1.86188e-14
1.52463e-14
1.27867e-14
1.03585e-14
8.03623e-15
6.29894e-15
4.6681e-15
1.00544e-14
1.21708e-14
1.48072e-14
1.51242e-14
1.55248e-14
1.44516e-14
1.30741e-14
1.13317e-14
1.05195e-14
8.41399e-15
7.45933e-15
5.95584e-15
5.41591e-15
4.73105e-15
4.78534e-15
4.09401e-15
4.09443e-15
4.11413e-15
4.05993e-15
3.97261e-15
4.04467e-15
3.31683e-15
3.51966e-15
3.60597e-15
3.78955e-15
3.61871e-15
3.58636e-15
3.30568e-15
3.08369e-15
3.00397e-15
3.2308e-15
2.89752e-15
2.74631e-15
2.96886e-15
2.80435e-15
2.75154e-15
2.38042e-15
2.61276e-15
2.43016e-15
2.50153e-15
2.4846e-15
2.17303e-15
1.92399e-15
1.88136e-15
1.84979e-15
1.56519e-15
1.15204e-15
6.878e-16
8.22954e-16
9.48404e-16
5.72375e-16
2.2318e-16
3.09851e-16
2.62603e-16
3.42932e-16
2.6986e-16
2.75488e-16
2.48302e-16
2.06571e-16
1.77485e-16
2.88653e-16
2.74503e-16
2.74503e-16
0.04
0.0269751
0.0284024
0.0281602
0.0275236
0.02477
0.0232518
0.0243123
0.024903
0.0238181
0.0231458
0.0236695
0.023978
0.0238432
0.023901
0.0242365
0.0243397
0.0243111
0.0243665
0.0244293
0.0243854
0.0243237
0.0243613
0.0243157
0.024314
0.0242284
0.0243016
0.0241802
0.0242429
0.0241153
0.0242069
0.024052
0.0241208
0.023979
0.024024
0.023886
0.0239189
0.0238318
0.0238624
0.0238099
0.0238302
0.0237813
0.0237593
0.0237037
0.023683
0.0236725
0.0237109
0.0237782
0.02387
0.0239541
0.0240119
0.0240237
0.0239886
0.0239165
0.0238252
0.0237366
0.0236722
0.023643
0.0236513
0.0237005
0.0237849
0.0238918
0.0240159
0.0241529
0.0242914
0.0244282
0.0245652
0.024698
0.0248263
0.024956
0.0250885
0.0252225
0.0253626
0.0255089
0.0256555
0.0257997
0.0259413
0.0260731
0.0261908
0.0262976
0.0263957
0.026483
0.0265648
0.0266482
0.0267333
0.0268181
0.0269071
0.0270004
0.0270925
0.0271806
0.027267
0.0273497
0.0274258
0.027494
0.0275569
0.0276136
0.0276637
0.0277064
0.0277429
0.0277727
0.0277956
0.0278102
0.0278166
0.0278147
0.0278049
0.0277846
0.0277547
0.0277171
0.0276699
0.0276127
0.0275515
0.0274843
0.027409
0.0273327
0.0272578
0.0271777
0.0270956
0.0270162
0.0269321
0.026839
0.0267422
0.0266388
0.0265231
0.0264011
0.0262798
0.0261582
0.0260413
0.0259394
0.0258544
0.0257827
0.0257262
0.0256839
0.0256475
0.0256115
0.0255767
0.0255423
0.0255078
0.0254781
0.0254593
0.0254545
0.0254652
0.0254918
0.0255333
0.0255858
0.0256447
0.0257067
0.0257698
0.0258323
0.0258927
0.025951
0.026007
0.0260576
0.0260988
0.0261276
0.0261383
0.0261257
0.02609
0.0260322
0.0259539
0.0258608
0.0257604
0.0256586
0.0255605
0.0254713
0.0253949
0.0253313
0.0252793
0.0252391
0.025209
0.0251864
0.0251709
0.0251614
0.025156
0.0251535
0.0251532
0.025155
0.0251579
0.0251612
0.0251649
0.025169
0.025172
0.025173
0.0251728
0.0251717
0.0251703
0.0251708
0.0251755
0.0251837
0.0251931
0.0252032
0.0252155
0.02523
0.0252441
0.025256
0.0252651
0.0252692
0.0252665
0.0252586
0.0252492
0.025238
0.0252226
0.0252038
0.0251862
0.0251698
0.0251487
0.0251239
0.0251066
0.0251014
0.0250933
0.0250637
0.0250162
0.0249742
0.0249494
0.0249244
0.0248775
0.0248145
0.0247606
0.0247224
0.0246747
0.0245962
0.02451
0.0244703
0.0244985
0.0245415
0.0245151
0.0243961
0.0242581
0.0241926
0.0241724
0.0240036
0.0234662
0.0225428
0.0215011
0.0207084
0.0203085
0.0200639
0.0195459
0.0185405
0.0173209
0.0165581
0.0169726
0.0189175
0.0219231
0.0244526
0.0245639
0.0214235
0.0160997
0.0105857
0.00626609
0.00344161
0.00179608
0.000904359
0.000443135
0.000212206
9.94845e-05
4.56771e-05
2.05317e-05
9.02552e-06
3.8733e-06
1.6183e-06
6.54469e-07
2.5313e-07
9.1794e-08
2.97278e-08
7.56982e-09
3.07388e-09
3.54517e-09
3.28124e-09
2.95567e-09
1.8085e-09
1.46011e-09
1.48707e-09
5.61763e-10
1.12155e-10
4.46124e-10
4.84556e-10
2.69616e-10
2.11168e-10
1.11033e-10
1.10407e-10
3.45988e-11
1.57381e-10
2.1255e-11
9.85806e-11
6.43281e-11
3.90096e-11
4.49441e-11
1.52902e-11
1.3266e-11
1.72016e-11
1.27954e-11
1.62095e-11
6.34376e-12
1.59091e-11
1.32051e-11
6.09953e-12
1.63318e-11
5.28238e-12
9.22622e-12
7.11376e-12
3.7937e-12
6.31994e-12
1.42107e-12
3.42918e-12
1.0256e-12
1.60773e-12
1.10483e-12
5.4677e-13
6.14552e-13
2.09498e-13
2.69346e-13
4.78924e-14
8.19645e-14
6.09638e-14
5.24193e-14
3.09055e-14
2.76569e-14
7.63237e-14
9.94049e-14
1.00121e-13
9.1694e-14
8.57628e-14
8.26086e-14
7.98075e-14
7.07453e-14
5.18828e-14
2.26621e-14
1.1523e-14
3.59606e-14
4.8598e-14
5.05253e-14
4.63682e-14
4.15877e-14
3.76646e-14
3.31384e-14
2.5863e-14
1.80522e-14
1.05274e-14
6.16501e-15
5.46335e-15
7.51269e-15
8.91912e-15
9.56025e-15
9.27621e-15
8.8623e-15
8.52887e-15
7.39576e-15
6.83286e-15
5.78907e-15
5.05301e-15
4.86705e-15
4.38293e-15
4.41698e-15
4.38859e-15
4.07781e-15
4.00929e-15
3.69147e-15
3.88212e-15
3.70203e-15
3.7163e-15
3.63827e-15
3.67763e-15
3.676e-15
3.56091e-15
3.1539e-15
3.05559e-15
3.03367e-15
2.92035e-15
3.02905e-15
2.7861e-15
3.04993e-15
2.66303e-15
2.65077e-15
2.49223e-15
2.57435e-15
2.64135e-15
2.40387e-15
2.56436e-15
2.29146e-15
2.10597e-15
1.71337e-15
1.84405e-15
1.513e-15
1.22283e-15
8.17023e-16
6.76533e-16
8.6043e-16
7.77435e-16
5.26374e-16
2.02123e-16
8.50545e-17
2.2033e-16
1.96384e-16
3.35838e-16
2.40571e-16
1.81774e-16
2.22721e-16
2.28273e-16
1.00614e-16
1.00614e-16
0.04
0.0275968
0.0288436
0.0275986
0.0268122
0.026743
0.027561
0.0267636
0.0252391
0.0251031
0.0257209
0.0254401
0.0247887
0.0248967
0.0252582
0.0252773
0.0252048
0.0253684
0.0254899
0.0254618
0.0254621
0.0255156
0.0255299
0.0254565
0.0254996
0.0254573
0.0255062
0.025389
0.0254849
0.0253394
0.0254063
0.0252282
0.025315
0.0251473
0.0252171
0.0250849
0.0251459
0.0250351
0.025074
0.0250091
0.0250403
0.0249984
0.0250164
0.024994
0.0250069
0.0250158
0.0250673
0.0251347
0.025228
0.0253193
0.0253932
0.0254257
0.0254112
0.0253491
0.0252534
0.0251476
0.0250508
0.024977
0.0249409
0.0249461
0.0249846
0.0250528
0.0251472
0.0252546
0.0253674
0.025486
0.0256045
0.0257186
0.0258335
0.0259507
0.026069
0.0261926
0.026324
0.0264579
0.0265922
0.026726
0.0268526
0.0269666
0.0270711
0.0271661
0.0272495
0.0273268
0.0274063
0.0274861
0.0275661
0.0276513
0.0277426
0.0278331
0.0279225
0.0280123
0.0281001
0.0281808
0.0282554
0.0283245
0.0283877
0.028442
0.0284871
0.0285252
0.0285571
0.0285777
0.0285889
0.0285936
0.0285889
0.0285724
0.0285488
0.0285159
0.0284713
0.0284187
0.028361
0.0282924
0.0282154
0.0281381
0.0280573
0.0279687
0.0278818
0.0277979
0.0277091
0.0276184
0.02753
0.0274352
0.0273309
0.0272213
0.0271036
0.0269734
0.0268372
0.0267018
0.0265679
0.02644
0.0263271
0.0262312
0.0261489
0.0260792
0.0260206
0.025966
0.0259105
0.0258544
0.0257996
0.0257481
0.0257046
0.0256748
0.0256625
0.0256679
0.0256888
0.0257218
0.0257629
0.0258071
0.0258501
0.0258913
0.0259322
0.0259721
0.0260122
0.0260549
0.026097
0.0261337
0.0261621
0.0261758
0.0261679
0.0261372
0.026085
0.0260119
0.0259227
0.0258254
0.0257262
0.0256296
0.02554
0.0254609
0.0253928
0.0253349
0.025288
0.025251
0.0252213
0.0251978
0.0251792
0.0251642
0.0251526
0.0251444
0.0251394
0.0251359
0.025133
0.0251305
0.025128
0.0251248
0.0251219
0.0251204
0.0251196
0.0251194
0.0251226
0.0251294
0.0251369
0.0251443
0.0251539
0.0251668
0.0251802
0.0251906
0.0251974
0.0252006
0.0251987
0.0251922
0.0251841
0.0251746
0.0251612
0.0251449
0.0251309
0.0251201
0.0251062
0.025087
0.0250715
0.0250669
0.0250621
0.0250378
0.0249926
0.0249479
0.024922
0.0249066
0.0248788
0.0248304
0.0247719
0.024711
0.0246428
0.0245675
0.0245127
0.0245181
0.0245819
0.0246333
0.0245809
0.0244037
0.0241856
0.0240361
0.0239535
0.0237724
0.0232904
0.022483
0.0215873
0.0209258
0.0206017
0.0203612
0.0197972
0.0187434
0.0175045
0.016732
0.0170937
0.0189122
0.0217585
0.0241914
0.0243309
0.0213064
0.0160942
0.010635
0.00632224
0.00348484
0.00182438
0.000921485
0.0004531
0.000217904
0.00010273
4.75301e-05
2.15978e-05
9.64763e-06
4.2416e-06
1.83911e-06
7.89965e-07
3.37493e-07
1.43585e-07
6.20679e-08
2.79507e-08
1.23148e-08
5.40748e-09
2.74414e-09
1.26083e-09
4.9902e-10
5.22461e-10
3.79255e-10
4.98893e-10
2.05689e-10
3.5332e-10
2.17465e-10
1.47465e-10
1.90771e-10
1.16886e-10
9.88524e-12
7.93754e-11
4.97742e-11
1.15807e-10
3.1874e-11
1.03891e-10
3.33594e-11
3.31587e-11
3.85279e-11
2.23276e-11
8.21249e-12
2.06234e-11
2.0193e-11
1.63719e-11
7.52298e-12
2.05635e-11
1.49452e-11
8.87618e-12
1.6361e-11
2.43678e-12
1.09234e-11
6.20013e-12
5.07023e-12
4.77605e-12
1.59913e-12
3.20594e-12
8.31967e-13
1.64579e-12
5.62605e-13
6.40526e-13
4.36458e-13
1.33766e-13
2.44027e-13
2.77844e-14
7.96202e-14
7.0074e-14
2.95517e-14
3.06491e-14
7.00826e-14
8.65067e-14
8.33987e-14
7.70894e-14
7.48273e-14
7.67719e-14
7.86395e-14
7.1506e-14
5.22868e-14
2.24632e-14
1.20202e-14
3.45686e-14
4.69257e-14
4.85839e-14
4.53089e-14
4.25751e-14
3.89348e-14
3.52063e-14
2.71584e-14
1.96657e-14
1.16768e-14
6.88233e-15
4.58195e-15
6.70643e-15
8.14768e-15
9.02211e-15
9.02919e-15
8.54137e-15
8.40627e-15
7.37462e-15
6.52721e-15
5.88468e-15
4.99051e-15
4.71664e-15
4.2879e-15
4.51637e-15
4.43362e-15
4.34108e-15
3.95172e-15
3.37023e-15
3.9706e-15
4.03865e-15
3.70629e-15
3.43825e-15
3.54286e-15
3.40057e-15
3.45365e-15
3.11222e-15
3.19382e-15
3.21023e-15
3.22343e-15
2.96901e-15
3.00203e-15
3.0145e-15
2.78631e-15
2.83107e-15
2.38424e-15
2.74618e-15
2.52282e-15
2.32454e-15
2.63537e-15
2.51673e-15
1.81512e-15
2.01998e-15
1.90838e-15
1.60343e-15
1.2583e-15
7.07903e-16
8.27519e-16
8.19561e-16
8.3528e-16
6.15932e-16
5.00683e-16
3.35174e-16
9.86202e-17
1.30601e-16
1.06879e-16
1.89808e-16
2.62603e-16
5.64785e-17
5.30723e-17
2.53483e-16
2.53483e-16
0.04
0.025576
0.0261964
0.0274547
0.0282356
0.0280326
0.0275399
0.0267718
0.0269775
0.0271831
0.0264696
0.025719
0.025844
0.0260654
0.0257903
0.0256055
0.0258029
0.0259611
0.0258929
0.0258885
0.0259886
0.0259945
0.0259487
0.0259237
0.0259807
0.0258982
0.0259367
0.0258462
0.025924
0.0257357
0.0257975
0.0256079
0.0256859
0.0255071
0.0256126
0.0254851
0.0255585
0.0254418
0.0254929
0.0254164
0.025459
0.0254368
0.0254923
0.0254992
0.0255448
0.025572
0.0256293
0.0256921
0.0257843
0.0258801
0.0259683
0.0260226
0.0260293
0.0259799
0.025887
0.0257682
0.025643
0.0255354
0.0254623
0.0254253
0.0254262
0.0254666
0.0255345
0.0256202
0.0257221
0.0258315
0.02594
0.0260499
0.0261611
0.0262704
0.0263822
0.0264991
0.026618
0.0267373
0.026858
0.0269741
0.0270808
0.0271794
0.0272713
0.0273536
0.0274306
0.0275086
0.0275878
0.0276656
0.0277484
0.0278375
0.0279264
0.0280132
0.0281038
0.0281939
0.0282783
0.0283579
0.0284354
0.0285061
0.0285679
0.028622
0.0286694
0.0287065
0.0287338
0.0287519
0.0287605
0.0287589
0.0287485
0.0287275
0.0286961
0.028657
0.0286103
0.0285516
0.0284859
0.0284168
0.0283391
0.0282539
0.0281699
0.0280822
0.0279885
0.027897
0.0278069
0.0277107
0.0276136
0.0275175
0.0274138
0.0273009
0.0271847
0.0270616
0.0269275
0.0267895
0.0266545
0.0265214
0.0263943
0.0262821
0.0261848
0.0260978
0.0260218
0.0259551
0.0258913
0.0258281
0.0257678
0.0257117
0.0256635
0.0256272
0.0256057
0.0256009
0.025611
0.0256308
0.0256561
0.0256834
0.0257089
0.0257306
0.0257513
0.0257753
0.025804
0.0258404
0.0258865
0.0259378
0.0259886
0.026034
0.0260654
0.026075
0.0260609
0.0260236
0.0259642
0.0258873
0.0258005
0.0257102
0.0256208
0.0255368
0.0254619
0.0253965
0.0253405
0.025294
0.0252554
0.025223
0.025196
0.0251739
0.0251565
0.0251436
0.025134
0.0251263
0.0251199
0.025115
0.0251116
0.0251095
0.0251092
0.0251108
0.0251126
0.0251137
0.0251169
0.0251247
0.0251346
0.025144
0.0251533
0.0251637
0.0251735
0.0251808
0.0251868
0.0251921
0.0251942
0.0251901
0.0251805
0.0251675
0.0251517
0.0251366
0.0251279
0.0251249
0.0251173
0.0250984
0.0250769
0.0250651
0.0250587
0.0250383
0.024996
0.0249485
0.0249175
0.0249019
0.02488
0.0248365
0.0247735
0.0246968
0.0246086
0.0245235
0.0244835
0.0245299
0.0246414
0.0247118
0.0246208
0.024347
0.0240081
0.023763
0.0236476
0.0235076
0.0231261
0.0224452
0.0216624
0.0210747
0.0207927
0.0205922
0.0200771
0.0190492
0.0177662
0.016866
0.0170505
0.0187095
0.0214878
0.0239819
0.0242746
0.0214026
0.0162679
0.0108046
0.00644684
0.00356186
0.00186693
0.00094318
0.000463444
0.000222491
0.000104569
4.81414e-05
2.17042e-05
9.57513e-06
4.12814e-06
1.73485e-06
7.07606e-07
2.78765e-07
1.04085e-07
3.4486e-08
9.40084e-09
3.95294e-09
3.82004e-09
3.30601e-09
2.4551e-09
2.38122e-09
1.65558e-09
6.25778e-10
5.30752e-10
8.2408e-10
6.40851e-10
1.07982e-10
2.80931e-10
1.39914e-10
3.41467e-11
2.07748e-10
1.23497e-10
1.44376e-10
1.90456e-11
1.07187e-10
7.54812e-12
3.73155e-11
3.44372e-11
8.34297e-12
1.93296e-11
2.12292e-11
1.16005e-11
9.62425e-12
1.21689e-11
1.65376e-11
5.36264e-12
1.37349e-11
1.30989e-11
4.45073e-12
1.28111e-11
4.16071e-12
7.35049e-12
4.55945e-12
3.03156e-12
3.58613e-12
1.1545e-12
1.92821e-12
5.03722e-13
8.11601e-13
4.09074e-13
2.48115e-13
2.81035e-13
1.64111e-13
9.83192e-14
9.82184e-15
2.20791e-14
3.76638e-14
6.99233e-14
8.52181e-14
9.2068e-14
8.98016e-14
8.44163e-14
8.44615e-14
8.72796e-14
8.88891e-14
8.06402e-14
6.16853e-14
3.19273e-14
8.00916e-15
2.29834e-14
3.50047e-14
3.83966e-14
3.72308e-14
3.67273e-14
3.42321e-14
3.09467e-14
2.41625e-14
1.69916e-14
9.73313e-15
5.51568e-15
5.3453e-15
7.47411e-15
8.78745e-15
9.33444e-15
9.26322e-15
8.86703e-15
8.14039e-15
7.84442e-15
6.63894e-15
5.97232e-15
5.02774e-15
4.85394e-15
4.24486e-15
4.08296e-15
4.58223e-15
4.23396e-15
3.78205e-15
3.53557e-15
3.83378e-15
3.87735e-15
3.59436e-15
3.70276e-15
3.5163e-15
3.36003e-15
3.27458e-15
3.06666e-15
3.40261e-15
3.21394e-15
3.2993e-15
3.11921e-15
2.85936e-15
2.92491e-15
2.8154e-15
2.60289e-15
2.25883e-15
2.54425e-15
2.58827e-15
2.5267e-15
2.33525e-15
2.23437e-15
2.02536e-15
2.05898e-15
1.73561e-15
1.72823e-15
1.05583e-15
9.1707e-16
9.54369e-16
8.36029e-16
7.44801e-16
5.54178e-16
1.56779e-16
1.80711e-16
2.3431e-16
2.21665e-16
2.31935e-16
1.83192e-16
3.38693e-16
2.11665e-16
3.14363e-16
3.36822e-16
3.36822e-16
0.04
0.0257063
0.0265447
0.0270193
0.0271918
0.0272127
0.0273342
0.0276521
0.0277759
0.0269771
0.0265225
0.0267896
0.0267468
0.0261263
0.0259058
0.026164
0.0261895
0.0259764
0.0259874
0.02614
0.0261187
0.0260166
0.0260406
0.0260363
0.0260038
0.0259069
0.0259852
0.0258764
0.0259091
0.0257271
0.0257976
0.0255771
0.0256515
0.0254995
0.0256341
0.0255137
0.025617
0.0255186
0.0255738
0.0254926
0.0255534
0.0255518
0.0256347
0.0256756
0.0257577
0.0258029
0.0258638
0.025922
0.0260059
0.0260946
0.0261862
0.0262524
0.0262734
0.0262385
0.0261542
0.0260312
0.0258956
0.0257736
0.0256761
0.0256135
0.0255953
0.0256149
0.0256628
0.0257386
0.0258342
0.025937
0.0260459
0.0261596
0.0262716
0.0263824
0.0264956
0.0266073
0.0267157
0.0268224
0.0269242
0.0270163
0.0271027
0.0271855
0.0272618
0.0273359
0.0274157
0.0274982
0.0275807
0.0276685
0.0277623
0.0278531
0.0279422
0.0280347
0.028127
0.0282121
0.0282954
0.0283783
0.0284562
0.028526
0.0285896
0.0286463
0.0286956
0.0287336
0.028761
0.0287803
0.0287906
0.0287874
0.0287751
0.0287559
0.0287255
0.0286836
0.0286374
0.0285826
0.0285161
0.0284455
0.0283721
0.0282873
0.0281969
0.0281079
0.0280132
0.0279109
0.0278116
0.0277126
0.0276076
0.0275027
0.0274012
0.0272948
0.0271821
0.0270676
0.0269485
0.0268192
0.0266848
0.0265518
0.0264195
0.0262907
0.0261743
0.0260729
0.0259833
0.0259055
0.0258395
0.025781
0.0257267
0.025677
0.0256341
0.0255999
0.0255752
0.025561
0.0255582
0.0255642
0.0255724
0.0255798
0.0255865
0.0255902
0.025591
0.0255956
0.0256099
0.0256348
0.0256744
0.0257301
0.0257954
0.0258626
0.0259256
0.0259748
0.0260012
0.0260028
0.0259803
0.0259351
0.0258714
0.0257959
0.0257156
0.0256349
0.0255576
0.0254882
0.025427
0.0253728
0.0253253
0.0252839
0.025248
0.0252169
0.0251912
0.0251717
0.0251567
0.0251432
0.0251311
0.0251216
0.0251148
0.025111
0.0251115
0.0251156
0.0251202
0.025123
0.0251257
0.0251315
0.0251399
0.0251488
0.0251581
0.0251674
0.0251741
0.0251775
0.0251801
0.0251838
0.025186
0.0251829
0.0251741
0.0251606
0.0251439
0.0251279
0.0251207
0.0251232
0.0251223
0.0251055
0.0250783
0.0250585
0.02505
0.0250353
0.0249991
0.024951
0.024914
0.0248943
0.0248744
0.0248351
0.0247713
0.0246881
0.0245931
0.0245088
0.0244832
0.0245569
0.0246957
0.0247701
0.024639
0.0242827
0.0238474
0.0235274
0.0233796
0.0232544
0.0229319
0.0223503
0.021695
0.0212387
0.021064
0.0209295
0.0204351
0.0193858
0.0180431
0.0170511
0.0171224
0.0186593
0.0213286
0.0237668
0.0240865
0.0213018
0.0162536
0.0108358
0.00648622
0.00359289
0.00188722
0.00095532
0.0004704
0.000226409
0.000106771
4.93911e-05
2.24267e-05
1.00013e-05
4.38571e-06
1.89466e-06
8.07468e-07
3.40772e-07
1.44685e-07
6.19124e-08
2.57096e-08
1.14848e-08
5.32423e-09
2.12864e-09
1.32773e-09
8.22404e-10
5.67225e-10
6.56533e-10
2.44022e-10
4.35152e-10
2.48572e-10
3.52981e-10
3.62941e-11
1.35034e-10
6.14298e-11
1.33302e-10
9.64626e-11
1.42832e-10
1.01541e-10
7.14599e-11
9.04884e-11
1.48619e-11
4.12151e-11
3.29282e-11
1.24333e-11
5.71756e-12
1.43511e-11
1.92663e-11
1.1407e-11
9.94274e-12
2.33196e-11
8.52801e-12
1.56607e-11
1.65314e-11
4.24351e-12
1.33024e-11
2.93839e-12
7.58804e-12
4.31146e-12
3.26056e-12
3.22063e-12
7.79743e-13
1.85492e-12
3.55988e-13
7.71848e-13
4.14275e-13
2.9061e-13
2.13525e-13
6.37716e-14
1.08081e-13
5.74755e-14
6.89076e-14
8.31339e-14
8.90253e-14
9.10789e-14
8.59477e-14
8.1551e-14
8.42666e-14
8.90271e-14
9.19931e-14
8.27102e-14
6.4115e-14
3.4348e-14
9.99418e-15
1.67017e-14
2.8164e-14
3.27356e-14
3.38155e-14
3.40264e-14
3.29623e-14