# vtk DataFile Version 3.0
LBM output step 760
ASCII
DATASET STRUCTURED_POINTS
DIMENSIONS 400 100 1
ORIGIN 0 0 0
SPACING 1 1 1
POINT_DATA 40000
SCALARS velocity_magnitude double 1
LOOKUP_TABLE default
0
0
0
0
0
0
0
0
0
0
0
0
0
0
0
0
0
0
0
0
0
0
0
0
0
0
0
0
0
0
0
0
0
0
0
0
0
0
0
0
0
0
0
0
0
0
0
0
0
0
0
0
0
0
0
0
0
0
0
0
0
0
0
0
0
0
0
0
0
0
0
0
0
0
0
0
0
0
0
0
0
0
0
0
0
0
0
0
0
0
0
0
0
0
0
0
0
0
0
0
0
0
0
0
0
0
0
0
0
0
0
0
0
0
0
0
0
0
0
0
0
0
0
0
0
0
0
0
0
0
0
0
0
0
0
0
0
0
0
0
0
0
0
0
0
0
0
0
0
0
0
0
0
0
0
0
0
0
0
0
0
0
0
0
0
0
0
0
0
0
0
0
0
0
0
0
0
0
0
0
0
0
0
0
0
0
0
0
0
0
0
0
0
0
0
0
0
0
0
0
0
0
0
0
0
0
0
0
0
0
0
0
0
0
0
0
0
0
0
0
0
0
0
0
0
0
0
0
0
0
0
0
0
0
0
0
0
0
0
0
0
0
0
0
0
0
0
0
0
0
0
0
0
0
0
0
0
0
0
0
0
0
0
0
0
0
0
0
0
0
0
0
0
0
0
0
0
0
0
0
0
0
0
0
0
0
0
0
0
0
0
0
0
0
0
0
0
0
0
0
0
0
0
0
0
0
0
0
0
0
0
0
0
0
0
0
0
0
0
0
0
0
0
0
0
0
0
0
0
0
0
0
0
0
0
0
0
0
0
0
0
0
0
0
0
0
0
0
0
0
0
0
0
0
0
0
0
0
0
0
0
0
0
0
0
0
0
0
0
0
0
0
0
0
0
0
0
0
0
0
0
0
0
0
0
0
0
0
0
0
0
0
0
0
0
0
0
0
0
0
0.04
0.0140043
0.00844771
0.0134729
0.0158511
0.0154922
0.0125282
0.0120127
0.0120656
0.0121361
0.0117907
0.0117937
0.0115205
0.0113454
0.0112082
0.0111937
0.011018
0.0109074
0.0108108
0.0107429
0.0106068
0.0105134
0.0103989
0.0102749
0.01012
0.00998955
0.00984006
0.00969012
0.00953901
0.00940757
0.00927369
0.00915074
0.00904389
0.00894949
0.00886699
0.00879048
0.0087354
0.00867346
0.00862993
0.00857122
0.00853641
0.00847362
0.00843871
0.00837183
0.00833798
0.00826588
0.00823095
0.0081579
0.00812282
0.00805046
0.00801585
0.00794821
0.00791366
0.00785007
0.00781429
0.00775565
0.00771938
0.00766748
0.0076354
0.00759566
0.00757218
0.00754638
0.0075343
0.00752246
0.0075199
0.00751961
0.00752664
0.00753546
0.00754949
0.00756651
0.00758626
0.00760678
0.00762933
0.00765188
0.00767323
0.00769382
0.00771402
0.00773181
0.00774746
0.00776204
0.00777485
0.00778442
0.0077923
0.00779899
0.00780344
0.00780511
0.00780607
0.00780574
0.00780291
0.00779774
0.00779195
0.00778405
0.00777345
0.00776103
0.00774798
0.00773273
0.00771587
0.00769841
0.00768071
0.00766162
0.00764235
0.00762295
0.00760306
0.0075823
0.00756163
0.00754015
0.00751779
0.00749472
0.00747112
0.00744603
0.00742025
0.00739422
0.00736814
0.00734236
0.0073185
0.00729675
0.0072772
0.00726013
0.0072457
0.00723224
0.00721898
0.00720557
0.00719088
0.00717365
0.00715489
0.00713513
0.0071141
0.00709301
0.00707397
0.00705683
0.0070416
0.00702966
0.00702103
0.00701405
0.00700896
0.0070064
0.00700515
0.00700449
0.00700559
0.00700838
0.00701151
0.00701525
0.00702037
0.00702569
0.00703009
0.0070341
0.00703744
0.0070384
0.00703682
0.00703397
0.00702998
0.00702498
0.00702112
0.0070203
0.00702233
0.00702711
0.00703508
0.00704505
0.00705469
0.00706297
0.00706969
0.00707413
0.00707609
0.00707685
0.00707783
0.00707964
0.00708302
0.00708889
0.00709732
0.00710768
0.00711938
0.0071318
0.00714396
0.00715493
0.00716424
0.00717158
0.00717661
0.00717941
0.00718046
0.00718014
0.00717893
0.00717786
0.00717803
0.00718004
0.00718418
0.00719051
0.00719873
0.00720825
0.00721854
0.00722925
0.00723999
0.00725025
0.00725958
0.00726758
0.00727389
0.00727842
0.00728167
0.00728491
0.00729001
0.0072992
0.00731453
0.0073374
0.00736832
0.00740697
0.00745224
0.00750251
0.00755612
0.00761191
0.00766937
0.00772851
0.00778922
0.00785065
0.00791126
0.00796945
0.00802443
0.00807654
0.00812678
0.00817596
0.00822429
0.00827153
0.00831763
0.00836295
0.00840766
0.00845075
0.00848943
0.00851968
0.00853767
0.00854126
0.00853059
0.00850738
0.00847378
0.00843163
0.00838269
0.00832936
0.00827522
0.00822444
0.00818044
0.00814469
0.0081165
0.00809431
0.00807761
0.00806827
0.00807026
0.00808775
0.00812243
0.00817166
0.00822864
0.00828462
0.00833252
0.00837
0.00840085
0.00843381
0.00847951
0.0085466
0.00863863
0.00875268
0.0088799
0.00900765
0.00912245
0.00921278
0.00927122
0.00929536
0.00928767
0.00925435
0.00920383
0.009145
0.00908581
0.00903233
0.00898834
0.00895552
0.00893392
0.00892263
0.00892039
0.00892598
0.00893841
0.00895696
0.00898105
0.00901016
0.00904378
0.00908135
0.00912229
0.00916589
0.00921129
0.00925731
0.00930235
0.00934452
0.00938176
0.00941219
0.00943445
0.00944794
0.00945287
0.00945014
0.0094411
0.00942721
0.00940981
0.00938996
0.00936849
0.00934604
0.00932324
0.00930077
0.00927941
0.00926006
0.00924367
0.00923121
0.00922363
0.00922183
0.00922671
0.00923918
0.00926029
0.00929118
0.00933296
0.00938652
0.00945206
0.00952866
0.00961392
0.00970381
0.00979295
0.00987522
0.00994479
0.00999714
0.0100299
0.0100431
0.0100394
0.0100226
0.00999759
0.00996891
0.00993992
0.0099123
0.00988567
0.00985774
0.00982487
0.00978306
0.00972929
0.00966262
0.00958489
0.00950077
0.00941701
0.00934128
0.00928091
0.00924187
0.00922822
0.00924202
0.00928367
0.00935257
0.00944801
0.00957039
0.00972272
0.00991246
0.0101534
0.0104669
0.0108803
0.0114216
0.0121075
0.0129275
0.0138282
0.0147084
0.0154377
0.0159039
0.0160796
0.0160643
0.0160458
0.0161755
0.0164509
0.0167311
0.0168767
0.0168714
0.0168139
0.0168168
0.0169184
0.0170629
0.0171546
0.0171422
0.0170544
0.0169564
0.0168943
0.0168716
0.0168555
0.0168124
0.0167428
0.0166756
0.0166393
0.0166414
0.0166681
0.0167011
0.0167354
0.0167798
0.0168458
0.0169368
0.0170473
0.0171688
0.0172902
0.0173979
0.0174777
0.017517
0.0175133
0.0174772
0.0174491
0.0174265
0.0174107
0.0174107
0.04
0.0227672
0.0241115
0.0216614
0.0146957
0.014148
0.0173067
0.0180073
0.0164373
0.0158904
0.0160613
0.0159347
0.0156326
0.0156158
0.015501
0.01528
0.0151718
0.0151892
0.0151137
0.0150228
0.0149962
0.01497
0.0148766
0.0147829
0.0146979
0.0145806
0.0144373
0.0143095
0.0141881
0.0140556
0.0139352
0.0138347
0.0137489
0.0136637
0.0136078
0.0135567
0.0135284
0.0134881
0.013484
0.0134541
0.01346
0.0134269
0.0134444
0.0134072
0.0134285
0.0133865
0.0134141
0.0133679
0.0133975
0.0133519
0.0133841
0.0133411
0.0133729
0.0133354
0.0133651
0.0133336
0.0133607
0.0133403
0.0133695
0.0133639
0.0133999
0.0134138
0.0134588
0.0134897
0.0135446
0.013591
0.0136528
0.0137114
0.0137813
0.0138482
0.013922
0.013996
0.0140723
0.0141463
0.0142226
0.0142974
0.0143696
0.0144398
0.0145102
0.0145765
0.0146388
0.0146995
0.0147584
0.0148117
0.0148615
0.0149101
0.0149552
0.0149944
0.0150309
0.015065
0.0150938
0.0151169
0.0151371
0.0151532
0.0151637
0.0151695
0.0151722
0.0151704
0.0151644
0.0151548
0.0151416
0.0151246
0.0151045
0.0150801
0.0150523
0.0150218
0.0149876
0.0149492
0.0149091
0.0148661
0.014819
0.0147707
0.0147226
0.0146719
0.0146216
0.0145747
0.0145284
0.0144821
0.0144399
0.0143992
0.0143564
0.0143139
0.0142727
0.0142286
0.0141823
0.0141376
0.0140937
0.0140494
0.014008
0.0139715
0.0139378
0.013907
0.0138817
0.0138606
0.0138416
0.0138258
0.0138138
0.0138037
0.0137949
0.0137886
0.0137845
0.0137809
0.0137781
0.0137766
0.0137755
0.0137734
0.0137706
0.0137674
0.0137627
0.0137563
0.01375
0.0137449
0.013741
0.0137397
0.0137428
0.0137497
0.0137591
0.0137706
0.0137834
0.0137951
0.013805
0.0138134
0.0138204
0.0138262
0.013832
0.0138394
0.0138487
0.0138601
0.0138741
0.0138903
0.0139078
0.0139257
0.0139436
0.0139606
0.0139761
0.0139897
0.0140016
0.0140118
0.0140205
0.0140285
0.0140364
0.014045
0.0140553
0.0140681
0.0140838
0.0141022
0.014123
0.0141458
0.01417
0.014195
0.0142202
0.0142453
0.0142696
0.0142928
0.0143145
0.0143349
0.0143545
0.0143746
0.0143969
0.0144235
0.0144562
0.014496
0.0145436
0.0145985
0.0146598
0.0147259
0.0147953
0.0148668
0.0149396
0.0150134
0.0150878
0.0151618
0.0152342
0.0153035
0.0153692
0.0154316
0.0154915
0.0155498
0.0156064
0.0156611
0.0157137
0.0157642
0.0158125
0.0158578
0.0158974
0.0159278
0.0159458
0.0159495
0.0159394
0.0159172
0.0158851
0.0158452
0.0157994
0.0157503
0.0157015
0.0156572
0.0156208
0.0155937
0.0155755
0.0155645
0.0155605
0.0155651
0.015582
0.015615
0.0156653
0.01573
0.0158022
0.0158733
0.0159366
0.0159899
0.0160369
0.0160861
0.0161476
0.0162294
0.0163343
0.0164588
0.0165936
0.0167259
0.0168422
0.0169315
0.0169868
0.0170066
0.0169941
0.0169562
0.0169019
0.0168404
0.0167798
0.0167263
0.0166836
0.0166533
0.0166354
0.0166289
0.0166325
0.016645
0.0166653
0.0166926
0.0167261
0.0167651
0.0168088
0.0168562
0.0169063
0.0169579
0.0170096
0.0170602
0.0171081
0.0171517
0.0171896
0.0172204
0.0172433
0.0172581
0.0172649
0.0172645
0.017258
0.0172465
0.0172313
0.0172132
0.0171935
0.017173
0.0171528
0.0171339
0.0171174
0.0171045
0.0170962
0.0170936
0.0170975
0.0171089
0.0171285
0.0171569
0.0171947
0.0172425
0.0173004
0.0173686
0.0174463
0.0175319
0.0176229
0.0177152
0.0178041
0.0178844
0.0179517
0.0180026
0.0180357
0.0180516
0.0180528
0.0180426
0.018025
0.0180037
0.0179813
0.017959
0.0179362
0.0179109
0.0178799
0.0178398
0.0177886
0.0177262
0.017655
0.0175801
0.0175083
0.0174472
0.0174038
0.0173839
0.017391
0.017427
0.0174918
0.0175847
0.0177046
0.0178518
0.0180296
0.0182457
0.0185148
0.0188596
0.0193095
0.0198954
0.0206374
0.0215283
0.0225172
0.0235035
0.0243541
0.0249515
0.025261
0.0253768
0.0254855
0.0257394
0.0261351
0.026527
0.026772
0.0268553
0.0268792
0.0269572
0.0271249
0.0273258
0.0274661
0.0274973
0.0274491
0.0273872
0.027357
0.0273611
0.0273677
0.0273455
0.0272964
0.0272486
0.0272294
0.027246
0.027285
0.0273303
0.0273789
0.0274394
0.027521
0.0276242
0.027741
0.0278607
0.0279742
0.0280718
0.0281393
0.0281662
0.0281557
0.0281138
0.028057
0.0280083
0.02799
0.02799
0.04
0.0237599
0.0217382
0.0188107
0.0198955
0.0220553
0.0210248
0.0194206
0.019689
0.0202726
0.0197538
0.0192028
0.0191422
0.0190991
0.0188201
0.018686
0.0186508
0.0185621
0.018462
0.0184772
0.0184864
0.0184467
0.018411
0.0183988
0.0183403
0.0182527
0.0181715
0.0180913
0.0179913
0.0178981
0.0178251
0.0177574
0.0176975
0.0176535
0.0176332
0.0176111
0.0176112
0.0176086
0.017633
0.017632
0.0176683
0.0176677
0.0177141
0.0177036
0.0177593
0.0177418
0.0178049
0.0177788
0.0178502
0.0178202
0.0178973
0.017867
0.0179481
0.017921
0.0180019
0.0179805
0.0180596
0.0180496
0.0181277
0.0181336
0.0182156
0.0182424
0.0183286
0.018376
0.0184692
0.0185336
0.0186305
0.0187103
0.0188113
0.0188999
0.0190041
0.0191013
0.0192054
0.0193055
0.0194113
0.0195123
0.0196143
0.0197148
0.0198147
0.0199094
0.0200031
0.0200944
0.0201812
0.0202632
0.0203437
0.0204203
0.0204912
0.0205581
0.0206227
0.0206817
0.0207347
0.0207835
0.0208284
0.0208667
0.0208989
0.0209264
0.0209495
0.0209655
0.0209757
0.0209815
0.0209819
0.0209747
0.0209627
0.0209459
0.0209221
0.020892
0.0208586
0.020819
0.0207734
0.0207246
0.0206722
0.0206142
0.0205544
0.0204939
0.0204305
0.0203661
0.0203038
0.0202411
0.0201773
0.020115
0.0200534
0.0199892
0.019924
0.0198593
0.0197933
0.0197259
0.0196604
0.0195972
0.0195354
0.0194769
0.0194236
0.0193743
0.0193288
0.0192886
0.0192533
0.0192213
0.0191925
0.0191674
0.0191448
0.0191236
0.0191047
0.0190878
0.0190721
0.0190571
0.0190432
0.0190301
0.0190168
0.0190031
0.0189899
0.018977
0.0189641
0.0189525
0.0189439
0.018938
0.0189352
0.0189367
0.0189419
0.0189491
0.0189577
0.018967
0.0189755
0.0189825
0.0189885
0.0189939
0.0189991
0.0190049
0.0190126
0.0190224
0.0190342
0.019048
0.0190634
0.0190796
0.0190959
0.0191117
0.0191266
0.01914
0.0191519
0.0191625
0.019172
0.0191809
0.0191898
0.0191998
0.0192116
0.0192258
0.0192429
0.0192631
0.0192861
0.0193112
0.019338
0.0193659
0.0193941
0.0194219
0.0194489
0.0194747
0.0194992
0.0195225
0.0195451
0.019568
0.0195923
0.0196195
0.0196511
0.0196881
0.0197312
0.0197804
0.0198353
0.0198951
0.0199585
0.0200245
0.020092
0.0201604
0.020229
0.0202971
0.0203638
0.0204283
0.0204903
0.0205503
0.020609
0.0206665
0.0207228
0.020777
0.0208286
0.0208773
0.0209228
0.0209642
0.0209997
0.0210266
0.0210423
0.0210454
0.0210362
0.0210161
0.0209868
0.0209499
0.020907
0.0208605
0.0208135
0.0207699
0.0207327
0.0207033
0.0206816
0.0206664
0.0206576
0.020657
0.0206682
0.0206948
0.020738
0.0207953
0.0208604
0.0209253
0.0209835
0.0210325
0.0210756
0.0211203
0.0211759
0.02125
0.0213456
0.02146
0.0215846
0.0217076
0.0218164
0.0219001
0.0219518
0.0219697
0.0219563
0.0219179
0.0218628
0.0217997
0.0217361
0.0216782
0.0216298
0.0215928
0.0215676
0.0215539
0.0215505
0.0215564
0.0215706
0.0215925
0.0216213
0.0216561
0.0216958
0.0217393
0.0217848
0.0218307
0.0218753
0.0219171
0.021955
0.0219881
0.0220157
0.0220376
0.0220536
0.0220635
0.0220674
0.0220651
0.022057
0.0220431
0.0220243
0.0220011
0.0219749
0.0219469
0.0219188
0.021892
0.021868
0.0218483
0.0218339
0.0218259
0.0218254
0.0218328
0.0218486
0.0218731
0.0219062
0.0219474
0.021996
0.0220512
0.0221116
0.0221754
0.0222406
0.0223045
0.0223645
0.0224178
0.0224622
0.0224963
0.0225197
0.0225328
0.0225366
0.0225328
0.0225229
0.0225086
0.0224909
0.0224701
0.0224454
0.0224149
0.0223762
0.0223273
0.0222669
0.0221956
0.0221159
0.0220322
0.0219504
0.0218769
0.0218181
0.0217792
0.021764
0.0217746
0.0218114
0.0218741
0.0219623
0.0220767
0.0222211
0.0224036
0.0226393
0.022951
0.0233683
0.0239219
0.0246317
0.0254903
0.0264457
0.0273956
0.0282044
0.0287515
0.0290023
0.0290562
0.0291106
0.0293263
0.0296981
0.0300692
0.0302864
0.0303355
0.0303271
0.0303812
0.0305331
0.0307222
0.0308504
0.0308665
0.0308003
0.0307198
0.0306723
0.0306615
0.0306552
0.0306207
0.0305581
0.0304941
0.0304551
0.0304486
0.0304634
0.0304853
0.0305124
0.0305533
0.0306147
0.0306942
0.0307819
0.030866
0.0309391
0.0309968
0.0310294
0.0310258
0.0309929
0.0309454
0.0308896
0.0308444
0.0308314
0.0308314
0.04
0.0255565
0.0268178
0.0267395
0.0263642
0.0237475
0.0221282
0.0231631
0.0238206
0.0226962
0.0218308
0.0220853
0.0221124
0.0216407
0.021349
0.0213788
0.0212356
0.0210492
0.0210085
0.0210369
0.0209681
0.0209481
0.0209819
0.0209894
0.0209389
0.0209182
0.0208953
0.0208431
0.0207795
0.0207444
0.0207082
0.0206687
0.0206464
0.0206447
0.0206481
0.0206548
0.0206846
0.0207135
0.0207553
0.0207844
0.0208425
0.0208694
0.0209312
0.0209489
0.0210221
0.0210268
0.0211074
0.0211013
0.0211932
0.0211757
0.0212777
0.0212547
0.0213648
0.0213396
0.0214537
0.0214305
0.0215451
0.0215298
0.0216423
0.0216421
0.0217559
0.0217755
0.0218905
0.021934
0.0220512
0.0221136
0.0222325
0.0223128
0.0224305
0.0225231
0.0226423
0.0227433
0.0228612
0.0229699
0.0230876
0.0231979
0.023315
0.0234272
0.0235392
0.0236478
0.0237572
0.0238608
0.0239609
0.0240589
0.0241543
0.0242431
0.0243287
0.0244123
0.0244911
0.0245631
0.0246326
0.0246985
0.0247578
0.0248111
0.0248611
0.0249054
0.0249428
0.0249747
0.0250012
0.0250205
0.0250335
0.0250395
0.025038
0.0250296
0.0250148
0.0249913
0.0249615
0.0249264
0.0248838
0.0248345
0.0247822
0.0247243
0.0246602
0.0245944
0.0245268
0.024454
0.0243798
0.0243064
0.0242301
0.0241509
0.0240727
0.0239931
0.0239096
0.0238254
0.0237417
0.0236563
0.0235707
0.0234879
0.0234077
0.0233293
0.023255
0.023186
0.0231217
0.0230618
0.0230076
0.0229586
0.022913
0.0228704
0.022831
0.0227942
0.0227586
0.0227246
0.0226927
0.022662
0.0226316
0.0226023
0.0225747
0.0225474
0.0225206
0.022496
0.0224733
0.0224518
0.0224328
0.0224177
0.0224059
0.022397
0.0223922
0.0223908
0.0223909
0.0223918
0.0223934
0.0223944
0.0223939
0.0223926
0.0223914
0.0223902
0.0223897
0.0223908
0.0223937
0.0223982
0.022404
0.0224109
0.0224184
0.0224256
0.0224323
0.0224382
0.022443
0.0224466
0.0224496
0.0224524
0.0224552
0.0224591
0.022465
0.0224734
0.0224847
0.0224991
0.0225168
0.0225371
0.0225596
0.0225834
0.0226079
0.0226323
0.0226558
0.0226783
0.0226998
0.0227204
0.0227408
0.0227614
0.0227829
0.0228062
0.0228321
0.0228615
0.0228954
0.0229343
0.0229785
0.0230276
0.023081
0.0231374
0.0231955
0.0232543
0.0233128
0.0233706
0.0234271
0.0234822
0.023536
0.0235891
0.0236419
0.0236943
0.0237457
0.0237949
0.0238407
0.023882
0.0239184
0.0239493
0.0239736
0.0239895
0.0239954
0.0239904
0.0239746
0.0239491
0.0239152
0.0238741
0.0238272
0.0237764
0.0237243
0.0236744
0.0236294
0.0235911
0.0235595
0.023534
0.0235149
0.0235039
0.0235045
0.0235199
0.0235515
0.0235972
0.0236513
0.0237067
0.023757
0.0237997
0.0238371
0.0238759
0.0239241
0.023989
0.0240734
0.0241751
0.0242865
0.0243966
0.0244932
0.0245661
0.0246082
0.0246175
0.0245962
0.02455
0.0244867
0.0244143
0.0243403
0.0242705
0.024209
0.0241583
0.0241193
0.0240919
0.0240755
0.0240693
0.0240722
0.0240837
0.0241027
0.0241283
0.0241592
0.0241935
0.0242292
0.0242641
0.0242959
0.0243231
0.0243448
0.0243607
0.0243712
0.0243767
0.0243778
0.0243746
0.024367
0.0243542
0.0243356
0.0243108
0.0242798
0.0242432
0.0242022
0.0241587
0.0241146
0.024072
0.0240328
0.0239986
0.0239707
0.0239504
0.0239385
0.0239355
0.0239416
0.0239564
0.0239789
0.0240077
0.0240409
0.0240767
0.0241127
0.0241473
0.0241786
0.0242056
0.0242277
0.0242448
0.0242574
0.0242662
0.0242718
0.0242745
0.0242741
0.0242702
0.024262
0.0242491
0.0242308
0.0242061
0.0241737
0.0241317
0.0240786
0.0240134
0.0239361
0.0238482
0.0237523
0.0236523
0.0235531
0.02346
0.0233787
0.0233142
0.0232702
0.0232493
0.0232524
0.0232796
0.0233311
0.0234084
0.0235158
0.0236626
0.0238645
0.0241452
0.0245351
0.025065
0.025755
0.026597
0.0275376
0.0284719
0.0292608
0.0297808
0.0299969
0.030013
0.0300351
0.0302309
0.0305922
0.0309504
0.0311423
0.0311549
0.0311097
0.0311345
0.0312645
0.0314337
0.0315383
0.0315238
0.0314226
0.0313091
0.0312349
0.0312026
0.0311761
0.0311198
0.0310332
0.0309447
0.0308824
0.0308539
0.0308469
0.0308468
0.0308519
0.0308721
0.0309147
0.0309748
0.0310381
0.0310922
0.0311299
0.0311499
0.0311545
0.0311412
0.0311083
0.0310642
0.0310212
0.0309986
0.0309995
0.0309995
0.04
0.0263294
0.0273905
0.026037
0.025319
0.0253806
0.0263378
0.0256703
0.0241792
0.0240593
0.0247086
0.0243994
0.0236049
0.0234682
0.0235681
0.0233254
0.0230021
0.0229569
0.0229054
0.0227697
0.022698
0.0227396
0.0227234
0.0226962
0.0227114
0.0227392
0.0227134
0.0226953
0.0226961
0.0226909
0.0226699
0.0226726
0.0226886
0.022703
0.0227238
0.0227624
0.0228085
0.0228497
0.0229046
0.0229568
0.0230195
0.0230613
0.0231305
0.0231659
0.0232384
0.0232579
0.0233418
0.023347
0.0234408
0.023432
0.0235409
0.0235199
0.0236415
0.0236136
0.0237441
0.0237133
0.0238479
0.0238201
0.0239544
0.0239391
0.0240721
0.0240749
0.0242081
0.0242346
0.0243653
0.0244144
0.0245444
0.0246119
0.024738
0.0248224
0.0249458
0.0250406
0.0251632
0.0252675
0.0253876
0.0254978
0.0256179
0.025729
0.0258456
0.0259579
0.0260698
0.0261761
0.0262836
0.0263866
0.0264852
0.0265806
0.0266751
0.0267642
0.0268485
0.0269305
0.02701
0.0270834
0.0271522
0.0272178
0.0272795
0.0273344
0.0273837
0.0274283
0.0274674
0.0274979
0.0275212
0.0275388
0.0275479
0.0275469
0.0275396
0.027525
0.0275003
0.0274684
0.0274318
0.0273865
0.0273338
0.0272778
0.0272161
0.027147
0.0270752
0.0270008
0.0269202
0.0268361
0.0267515
0.0266631
0.0265702
0.0264764
0.0263812
0.0262818
0.0261806
0.0260805
0.0259801
0.0258793
0.0257813
0.025687
0.0255953
0.0255073
0.0254255
0.0253493
0.0252779
0.0252116
0.0251506
0.025093
0.0250375
0.0249845
0.024934
0.0248847
0.0248362
0.0247895
0.0247445
0.0246998
0.0246565
0.024616
0.0245774
0.0245402
0.0245063
0.0244758
0.0244474
0.0244218
0.0244004
0.0243825
0.0243672
0.0243552
0.0243463
0.0243386
0.0243311
0.0243238
0.024316
0.0243069
0.0242968
0.0242867
0.0242767
0.0242671
0.0242587
0.0242518
0.0242462
0.0242417
0.0242382
0.0242353
0.0242325
0.0242295
0.0242262
0.0242224
0.024218
0.0242137
0.0242101
0.0242074
0.0242064
0.0242078
0.0242123
0.0242199
0.0242308
0.0242448
0.0242615
0.0242801
0.0242997
0.0243197
0.0243394
0.0243584
0.0243767
0.0243947
0.0244126
0.0244306
0.024449
0.0244681
0.0244885
0.0245107
0.0245357
0.0245645
0.0245977
0.0246357
0.0246782
0.0247241
0.0247718
0.0248198
0.024867
0.0249127
0.0249573
0.0250012
0.0250451
0.0250896
0.0251347
0.0251802
0.0252249
0.0252673
0.0253057
0.0253385
0.0253648
0.0253839
0.0253954
0.0253988
0.0253936
0.0253796
0.025357
0.0253265
0.0252887
0.0252444
0.0251946
0.0251408
0.0250853
0.0250309
0.02498
0.0249342
0.0248938
0.0248589
0.0248302
0.0248096
0.0248003
0.0248054
0.0248261
0.0248603
0.0249031
0.024948
0.0249895
0.025025
0.0250564
0.0250892
0.0251305
0.0251865
0.0252599
0.0253487
0.025446
0.0255416
0.0256244
0.0256845
0.0257153
0.0257147
0.0256845
0.0256302
0.0255588
0.0254779
0.0253946
0.0253145
0.0252417
0.0251791
0.0251279
0.0250885
0.0250607
0.0250439
0.0250371
0.0250395
0.0250501
0.0250675
0.0250901
0.0251158
0.0251421
0.0251666
0.0251869
0.0252013
0.0252091
0.0252104
0.025206
0.0251972
0.0251849
0.0251696
0.0251511
0.0251285
0.0251009
0.0250672
0.0250273
0.0249814
0.0249309
0.0248774
0.0248234
0.0247709
0.0247223
0.0246793
0.0246434
0.0246159
0.0245976
0.0245887
0.0245889
0.0245974
0.0246124
0.0246314
0.0246519
0.0246708
0.0246858
0.0246949
0.0246974
0.0246935
0.0246845
0.0246726
0.0246603
0.0246502
0.0246439
0.024642
0.0246433
0.0246457
0.0246468
0.0246438
0.0246345
0.0246167
0.0245882
0.0245472
0.0244927
0.0244243
0.0243432
0.0242513
0.0241515
0.0240473
0.0239427
0.0238422
0.0237507
0.0236726
0.023612
0.0235714
0.0235522
0.0235552
0.0235812
0.0236325
0.0237143
0.0238367
0.0240163
0.0242775
0.0246513
0.0251694
0.0258524
0.0266924
0.0276354
0.0285746
0.029367
0.0298845
0.0300888
0.0300856
0.0300874
0.0302695
0.0306261
0.0309844
0.0311757
0.0311849
0.0311334
0.0311488
0.0312674
0.0314262
0.0315246
0.0315082
0.0314069
0.0312919
0.0312129
0.0311729
0.0311397
0.0310816
0.0309984
0.0309147
0.0308535
0.0308207
0.0308068
0.030802
0.0308076
0.0308319
0.0308779
0.0309358
0.0309879
0.031024
0.031043
0.031047
0.0310418
0.0310328
0.0310191
0.0310052
0.0309973
0.0309957
0.0309996
0.0309996
0.04
0.0242727
0.024727
0.0259629
0.0267308
0.0265653
0.026189
0.025505
0.0257959
0.026172
0.0256153
0.0249269
0.0250407
0.0252083
0.0248118
0.0244289
0.0244093
0.0243678
0.0241141
0.0239647
0.0239532
0.0239079
0.0238238
0.0238338
0.0238675
0.023862
0.0238549
0.0238889
0.0239066
0.0239059
0.0239205
0.023955
0.0239782
0.0240046
0.0240484
0.0240984
0.0241442
0.0241958
0.0242584
0.0243139
0.024373
0.0244246
0.0244908
0.0245296
0.0245958
0.0246237
0.0246992
0.0247087
0.0247971
0.0247924
0.0248966
0.0248764
0.0249989
0.0249672
0.0251033
0.0250653
0.0252088
0.0251692
0.0253157
0.0252837
0.0254272
0.0254126
0.0255551
0.0255613
0.0257001
0.0257324
0.0258658
0.025918
0.0260479
0.0261184
0.0262418
0.0263274
0.0264488
0.0265436
0.0266632
0.0267674
0.0268838
0.0269911
0.0271073
0.0272152
0.0273252
0.0274323
0.0275399
0.0276408
0.0277413
0.0278403
0.0279359
0.028026
0.0281157
0.0282035
0.028286
0.0283639
0.0284413
0.0285146
0.0285813
0.028644
0.0287039
0.0287563
0.0288019
0.028842
0.0288746
0.0288978
0.0289142
0.0289214
0.0289185
0.0289082
0.0288901
0.0288614
0.0288262
0.0287855
0.0287355
0.0286786
0.0286186
0.0285512
0.0284759
0.028398
0.0283159
0.0282257
0.0281324
0.0280374
0.0279367
0.0278314
0.0277253
0.0276163
0.0275033
0.02739
0.0272775
0.0271646
0.0270527
0.0269441
0.0268391
0.0267377
0.0266414
0.0265515
0.0264677
0.0263889
0.0263146
0.0262446
0.0261775
0.026112
0.0260486
0.0259875
0.0259274
0.025868
0.0258105
0.0257551
0.0257008
0.025649
0.0256014
0.0255571
0.0255153
0.0254776
0.0254437
0.025412
0.025383
0.0253579
0.0253361
0.0253165
0.0252997
0.0252855
0.0252719
0.0252579
0.0252436
0.0252284
0.0252114
0.0251931
0.0251744
0.0251558
0.0251373
0.0251198
0.025104
0.0250897
0.0250767
0.0250652
0.0250549
0.025045
0.0250355
0.0250262
0.0250169
0.0250077
0.0249992
0.0249918
0.024986
0.024982
0.0249807
0.0249825
0.0249875
0.0249958
0.0250071
0.025021
0.0250365
0.0250529
0.0250696
0.0250863
0.025103
0.0251199
0.0251372
0.0251547
0.025172
0.0251891
0.025206
0.0252234
0.0252422
0.0252638
0.0252891
0.0253191
0.0253535
0.0253915
0.0254311
0.0254707
0.0255087
0.0255449
0.0255798
0.0256146
0.0256505
0.025688
0.0257274
0.0257678
0.0258079
0.0258456
0.0258785
0.0259047
0.0259226
0.0259319
0.0259329
0.0259262
0.0259124
0.025892
0.0258652
0.0258324
0.0257937
0.0257495
0.0257004
0.0256473
0.0255919
0.0255364
0.0254829
0.0254327
0.0253867
0.0253454
0.02531
0.0252826
0.025266
0.025263
0.0252748
0.0252998
0.0253338
0.0253714
0.0254074
0.0254393
0.0254682
0.0254984
0.0255358
0.0255857
0.0256508
0.0257294
0.0258157
0.0259004
0.0259733
0.026025
0.0260492
0.0260435
0.0260093
0.0259515
0.0258765
0.0257914
0.0257028
0.0256164
0.0255366
0.0254664
0.0254076
0.0253613
0.0253273
0.0253051
0.0252938
0.0252921
0.0252988
0.0253124
0.0253309
0.0253521
0.0253735
0.0253924
0.0254066
0.0254142
0.0254146
0.0254081
0.0253957
0.025379
0.0253591
0.0253369
0.0253121
0.0252842
0.0252521
0.0252148
0.0251718
0.0251234
0.0250709
0.0250159
0.0249606
0.0249071
0.0248576
0.024814
0.0247777
0.02475
0.0247317
0.0247226
0.0247221
0.0247286
0.0247397
0.0247524
0.0247634
0.0247697
0.0247686
0.0247589
0.0247404
0.0247147
0.0246848
0.0246547
0.0246285
0.0246101
0.0246016
0.0246031
0.0246128
0.0246274
0.0246431
0.024656
0.0246627
0.02466
0.0246451
0.0246159
0.0245713
0.0245116
0.0244386
0.0243545
0.0242621
0.0241642
0.0240636
0.0239638
0.0238692
0.0237842
0.0237131
0.0236589
0.0236237
0.0236088
0.0236157
0.0236473
0.0237098
0.0238145
0.0239791
0.0242288
0.024595
0.0251097
0.0257934
0.0266376
0.0275871
0.028533
0.0293295
0.0298456
0.0300415
0.0300256
0.0300173
0.0301983
0.0305639
0.0309354
0.0311362
0.0311482
0.031094
0.0311051
0.0312211
0.0313816
0.0314849
0.0314726
0.0313722
0.0312566
0.0311781
0.0311406
0.0311124
0.0310618
0.0309869
0.0309096
0.0308519
0.0308213
0.0308103
0.0308104
0.0308222
0.0308518
0.0308991
0.030954
0.0309987
0.0310211
0.0310235
0.0310154
0.0310044
0.0309977
0.0310002
0.0310161
0.0310423
0.0310679
0.0310802
0.0310802
0.04
0.0242655
0.0249588
0.02546
0.025604
0.0256877
0.0258513
0.0262456
0.0265301
0.0259084
0.0256023
0.0260337
0.0261383
0.0255777
0.0253237
0.0255012
0.0254105
0.0250419
0.0248856
0.0248949
0.0247568
0.0245903
0.0245677
0.0245842
0.024534
0.024521
0.0245665
0.024592
0.0245884
0.0246193
0.0246646
0.02469
0.0247152
0.0247655
0.0248148
0.024855
0.0249045
0.0249644
0.0250187
0.0250679
0.0251269
0.0251794
0.0252331
0.0252716
0.0253323
0.0253596
0.0254228
0.0254357
0.0255161
0.0255113
0.0256086
0.0255898
0.0257081
0.0256741
0.0258111
0.0257677
0.0259153
0.0258686
0.0260206
0.0259768
0.026128
0.0260996
0.0262456
0.0262377
0.0263811
0.0263972
0.0265322
0.0265728
0.0267024
0.0267608
0.0268843
0.0269604
0.0270786
0.0271664
0.0272831
0.0273789
0.0274923
0.027595
0.0277057
0.0278081
0.0279177
0.0280218
0.028125
0.0282259
0.0283292
0.0284268
0.0285218
0.028617
0.0287112
0.0287994
0.0288856
0.0289711
0.0290531
0.0291294
0.0292026
0.0292725
0.0293375
0.0293953
0.0294469
0.0294929
0.0295316
0.0295594
0.0295793
0.029592
0.0295937
0.0295843
0.0295692
0.0295451
0.0295098
0.0294688
0.029423
0.0293665
0.0293031
0.0292371
0.0291631
0.02908
0.0289941
0.0289037
0.0288045
0.0287011
0.0285961
0.0284851
0.0283686
0.028251
0.0281316
0.0280084
0.0278847
0.0277632
0.0276426
0.027523
0.0274074
0.0272972
0.0271918
0.0270915
0.0269983
0.0269113
0.0268283
0.0267488
0.0266732
0.0266003
0.0265287
0.0264587
0.0263913
0.0263252
0.0262595
0.0261963
0.0261365
0.0260791
0.0260252
0.0259771
0.0259334
0.0258926
0.0258558
0.0258229
0.025792
0.0257631
0.0257377
0.0257152
0.0256943
0.0256751
0.0256577
0.0256402
0.0256213
0.025601
0.0255794
0.0255558
0.0255304
0.0255045
0.0254788
0.0254536
0.0254297
0.025408
0.0253884
0.0253708
0.0253551
0.0253411
0.0253279
0.0253154
0.0253037
0.0252925
0.0252818
0.025272
0.0252637
0.0252569
0.0252519
0.0252495
0.0252503
0.0252542
0.0252612
0.0252712
0.0252837
0.0252978
0.025313
0.0253291
0.0253459
0.0253635
0.0253819
0.0254007
0.0254192
0.025437
0.025454
0.0254705
0.0254876
0.0255067
0.025529
0.0255554
0.0255861
0.02562
0.0256554
0.0256902
0.0257229
0.0257532
0.025782
0.025811
0.0258417
0.0258749
0.0259105
0.0259478
0.0259851
0.02602
0.0260498
0.0260717
0.026084
0.0260862
0.0260792
0.0260647
0.0260446
0.0260199
0.0259911
0.0259582
0.025921
0.0258794
0.0258338
0.0257846
0.0257329
0.0256802
0.0256279
0.0255773
0.0255295
0.0254857
0.0254475
0.025417
0.0253971
0.02539
0.0253968
0.025416
0.0254444
0.0254773
0.0255105
0.0255417
0.0255714
0.0256027
0.0256405
0.0256891
0.0257506
0.0258236
0.0259029
0.0259801
0.0260459
0.0260915
0.0261109
0.0261017
0.0260654
0.0260061
0.0259302
0.0258441
0.0257542
0.0256658
0.0255834
0.0255103
0.0254486
0.0253997
0.0253638
0.0253404
0.0253285
0.0253265
0.0253329
0.0253458
0.0253632
0.0253829
0.0254024
0.0254192
0.0254312
0.0254366
0.0254345
0.0254252
0.0254094
0.0253887
0.0253643
0.0253372
0.0253078
0.0252761
0.0252412
0.0252027
0.0251603
0.0251141
0.0250649
0.0250143
0.0249639
0.0249154
0.0248708
0.0248317
0.0247995
0.0247752
0.0247593
0.0247516
0.0247508
0.0247551
0.0247616
0.0247672
0.0247688
0.0247636
0.0247496
0.0247261
0.0246938
0.0246551
0.0246137
0.0245743
0.0245419
0.0245206
0.024513
0.024519
0.0245365
0.0245617
0.0245903
0.024618
0.0246408
0.0246548
0.0246568
0.0246441
0.0246153
0.0245706
0.0245117
0.0244408
0.0243602
0.024272
0.0241782
0.0240816
0.023986
0.023896
0.023816
0.0237499
0.0237001
0.0236685
0.0236572
0.0236699
0.0237139
0.0238013
0.0239506
0.0241879
0.0245454
0.0250556
0.0257394
0.0265887
0.0275477
0.0285055
0.0293132
0.0298356
0.0300302
0.0300057
0.0299863
0.0301604
0.0305268
0.0309055
0.0311163
0.0311361
0.031084
0.0310902
0.0311977
0.0313518
0.0314541
0.0314453
0.0313504
0.0312396
0.0311632
0.031126
0.0310984
0.0310512
0.0309828
0.0309129
0.0308619
0.0308365
0.0308299
0.0308341
0.0308495
0.0308813
0.0309276
0.0309767
0.0310124
0.0310223
0.0310089
0.0309879
0.0309738
0.0309758
0.0309989
0.0310413
0.0310915
0.0311351
0.0311523
0.0311523
0.04
0.0248689
0.0253923
0.0250477
0.025411
0.0258321
0.0259507
0.0259605
0.0258819
0.0259585
0.0263471
0.0262518
0.0258536
0.025868
0.0261224
0.0259502
0.0256011
0.0255494
0.0255793
0.0253779
0.0251567
0.0251181
0.0250902
0.0249859
0.0249338
0.0249667
0.0249743
0.0249616
0.0249899
0.0250383
0.0250594
0.025084
0.0251328
0.0251799
0.0252132
0.0252578
0.0253118
0.0253583
0.0254013
0.0254518
0.0255034
0.025544
0.02559
0.0256284
0.0256774
0.0256996
0.0257569
0.02577
0.0258403
0.0258365
0.0259298
0.0259105
0.0260248
0.0259918
0.026128
0.0260826
0.0262337
0.0261838
0.0263388
0.0262908
0.0264467
0.0264089
0.0265584
0.0265432
0.0266868
0.0266928
0.0268304
0.0268621
0.0269895
0.0270414
0.0271643
0.027232
0.0273482
0.0274308
0.0275428
0.0276329
0.0277437
0.0278396
0.0279458
0.0280462
0.0281524
0.0282512
0.0283548
0.0284573
0.0285586
0.0286562
0.0287569
0.0288561
0.0289513
0.0290438
0.0291379
0.0292283
0.0293127
0.0293945
0.0294758
0.0295499
0.0296169
0.0296806
0.029739
0.0297867
0.0298274