# vtk DataFile Version 3.0
LBM output step 1860
ASCII
DATASET STRUCTURED_POINTS
DIMENSIONS 400 100 1
ORIGIN 0 0 0
SPACING 1 1 1
POINT_DATA 40000
SCALARS velocity_magnitude double 1
LOOKUP_TABLE default
0
0
0
0
0
0
0
0
0
0
0
0
0
0
0
0
0
0
0
0
0
0
0
0
0
0
0
0
0
0
0
0
0
0
0
0
0
0
0
0
0
0
0
0
0
0
0
0
0
0
0
0
0
0
0
0
0
0
0
0
0
0
0
0
0
0
0
0
0
0
0
0
0
0
0
0
0
0
0
0
0
0
0
0
0
0
0
0
0
0
0
0
0
0
0
0
0
0
0
0
0
0
0
0
0
0
0
0
0
0
0
0
0
0
0
0
0
0
0
0
0
0
0
0
0
0
0
0
0
0
0
0
0
0
0
0
0
0
0
0
0
0
0
0
0
0
0
0
0
0
0
0
0
0
0
0
0
0
0
0
0
0
0
0
0
0
0
0
0
0
0
0
0
0
0
0
0
0
0
0
0
0
0
0
0
0
0
0
0
0
0
0
0
0
0
0
0
0
0
0
0
0
0
0
0
0
0
0
0
0
0
0
0
0
0
0
0
0
0
0
0
0
0
0
0
0
0
0
0
0
0
0
0
0
0
0
0
0
0
0
0
0
0
0
0
0
0
0
0
0
0
0
0
0
0
0
0
0
0
0
0
0
0
0
0
0
0
0
0
0
0
0
0
0
0
0
0
0
0
0
0
0
0
0
0
0
0
0
0
0
0
0
0
0
0
0
0
0
0
0
0
0
0
0
0
0
0
0
0
0
0
0
0
0
0
0
0
0
0
0
0
0
0
0
0
0
0
0
0
0
0
0
0
0
0
0
0
0
0
0
0
0
0
0
0
0
0
0
0
0
0
0
0
0
0
0
0
0
0
0
0
0
0
0
0
0
0
0
0
0
0
0
0
0
0
0
0
0
0
0
0
0
0
0
0
0
0
0
0
0
0
0
0
0
0
0
0
0
0
0
0.04
0.017741
0.0115406
0.0141322
0.0173625
0.0173714
0.0139724
0.0126379
0.0124517
0.0124777
0.0120698
0.0119616
0.0116171
0.0113702
0.0111949
0.0111677
0.0109881
0.0108525
0.0107415
0.0106722
0.010546
0.0104659
0.0103842
0.0103056
0.0102058
0.0101362
0.0100556
0.00997315
0.00988401
0.00980952
0.00972339
0.00963862
0.00955353
0.00947543
0.0093906
0.00931097
0.00923351
0.00916046
0.00908574
0.00901743
0.00895138
0.00888873
0.00882713
0.00877097
0.00871649
0.00866504
0.00861556
0.00857006
0.00852591
0.00848441
0.0084447
0.00840773
0.00837183
0.00833794
0.00830548
0.00827501
0.00824543
0.00821749
0.00819098
0.00816605
0.00814201
0.0081196
0.00809864
0.0080788
0.00806
0.00804277
0.00802656
0.0080111
0.00799694
0.00798388
0.0079715
0.00796014
0.00795046
0.00794151
0.00793379
0.00792782
0.00792366
0.00791992
0.00791822
0.00791808
0.00791903
0.00791979
0.00792276
0.00792585
0.00792904
0.00793122
0.00793513
0.00793711
0.00793837
0.00793731
0.00793687
0.00793206
0.00792579
0.00791527
0.00790405
0.00788612
0.00786653
0.00784076
0.00781371
0.00777845
0.00774244
0.00769878
0.00765448
0.00760147
0.00754943
0.00748861
0.00742911
0.00736084
0.00729567
0.00722113
0.00715085
0.00707159
0.00699794
0.00691469
0.00683878
0.00675322
0.00667603
0.00658894
0.00651204
0.00642486
0.00634911
0.00626344
0.00619088
0.00610797
0.00603971
0.00596184
0.00589935
0.00582683
0.00577114
0.00570552
0.00565598
0.00559653
0.00555368
0.00550001
0.00546164
0.00541335
0.0053797
0.00533549
0.00530536
0.00526646
0.00524039
0.00520629
0.00518524
0.00515803
0.00514234
0.00512205
0.00511308
0.00510039
0.00509699
0.00509105
0.00509298
0.005092
0.00509666
0.00509892
0.00510486
0.00510782
0.00511304
0.0051158
0.00511946
0.00512072
0.00512253
0.0051225
0.00512233
0.00512064
0.00511879
0.00511558
0.0051117
0.00510662
0.00510071
0.00509342
0.00508498
0.00507528
0.0050644
0.00505227
0.00503916
0.0050253
0.00501091
0.00499633
0.00498198
0.00496826
0.00495547
0.00494399
0.00493408
0.00492592
0.00491954
0.00491492
0.00491196
0.0049104
0.00490996
0.00491035
0.00491124
0.00491228
0.00491318
0.00491371
0.00491368
0.00491296
0.00491152
0.00490938
0.00490658
0.00490322
0.00489943
0.00489538
0.00489129
0.00488741
0.00488398
0.00488121
0.00487922
0.00487801
0.00487746
0.00487733
0.00487728
0.00487695
0.00487596
0.00487396
0.0048707
0.00486595
0.00485962
0.00485168
0.0048422
0.00483135
0.00481942
0.00480686
0.0047942
0.00478205
0.004771
0.00476155
0.00475403
0.00474854
0.00474501
0.00474321
0.00474282
0.00474344
0.00474468
0.00474607
0.00474716
0.00474749
0.00474668
0.00474448
0.00474087
0.00473605
0.00473036
0.00472418
0.00471777
0.00471116
0.00470417
0.00469649
0.00468789
0.00467843
0.00466865
0.00465957
0.00465259
0.00464927
0.00465093
0.00465839
0.00467175
0.00469027
0.00471252
0.0047366
0.00476046
0.00478222
0.00480049
0.0048145
0.00482423
0.00483031
0.00483387
0.00483638
0.00483943
0.00484455
0.00485302
0.00486582
0.00488356
0.00490643
0.00493427
0.00496655
0.00500248
0.00504108
0.00508123
0.0051218
0.00516172
0.00520006
0.00523606
0.00526922
0.00529923
0.005326
0.00534963
0.00537032
0.00538838
0.00540414
0.00541795
0.00543012
0.00544095
0.00545069
0.00545955
0.00546769
0.00547521
0.00548218
0.00548862
0.00549454
0.00549994
0.00550484
0.00550927
0.00551333
0.00551717
0.005521
0.00552507
0.00552965
0.00553503
0.00554145
0.00554907
0.00555799
0.00556814
0.00557937
0.00559144
0.00560401
0.00561677
0.00562944
0.00564184
0.00565386
0.00566554
0.0056769
0.00568799
0.00569877
0.00570905
0.00571857
0.00572699
0.005734
0.00573943
0.00574334
0.00574598
0.00574784
0.00574949
0.0057515
0.00575431
0.00575821
0.00576329
0.00576945
0.0057765
0.00578416
0.00579208
0.00579987
0.00580716
0.00581354
0.0058187
0.00582243
0.00582463
0.00582536
0.00582474
0.0058229
0.00581994
0.00581588
0.00581066
0.00580424
0.00579662
0.00578795
0.00577859
0.00576909
0.00576014
0.00575247
0.00574674
0.00574344
0.00574284
0.00574499
0.00574979
0.00575701
0.00576634
0.00577745
0.0057899
0.00580321
0.00581679
0.00582998
0.00584213
0.00585261
0.00586088
0.00586652
0.00586923
0.00586881
0.00586519
0.00585838
0.00584857
0.00583603
0.00582124
0.00580476
0.00578723
0.00576931
0.00575161
0.00573458
0.00571859
0.0057038
0.00569027
0.00567785
0.00566641
0.00565568
0.00564534
0.00563509
0.00562486
0.0056143
0.00560274
0.00559116
0.00557975
0.00557975
0.04
0.0278398
0.0304559
0.0280245
0.0202201
0.0181558
0.0209294
0.0217911
0.0199655
0.0188156
0.0186044
0.0183262
0.0178555
0.0176421
0.0173653
0.0169995
0.0167304
0.0166111
0.0164098
0.0161884
0.0160304
0.01591
0.0157449
0.0156
0.0154848
0.0153659
0.0152282
0.0151132
0.0150058
0.0148892
0.01477
0.014666
0.0145612
0.0144531
0.0143507
0.0142582
0.014165
0.0140753
0.0139941
0.0139197
0.0138474
0.0137818
0.013724
0.0136711
0.0136222
0.0135799
0.0135431
0.0135101
0.013481
0.0134567
0.0134359
0.0134176
0.0134024
0.0133905
0.0133812
0.0133739
0.0133696
0.0133683
0.0133694
0.013373
0.0133801
0.0133901
0.0134025
0.0134182
0.0134376
0.0134592
0.0134836
0.0135117
0.0135425
0.0135752
0.0136117
0.0136513
0.0136926
0.0137365
0.0137851
0.0138352
0.0138869
0.0139421
0.0140008
0.0140588
0.0141185
0.0141807
0.0142438
0.0143037
0.0143651
0.0144263
0.0144853
0.014539
0.0145933
0.0146432
0.0146884
0.014726
0.0147625
0.0147896
0.0148107
0.0148218
0.0148294
0.0148237
0.0148128
0.0147891
0.014761
0.0147178
0.0146713
0.0146093
0.0145449
0.0144648
0.0143838
0.0142858
0.0141903
0.0140776
0.0139679
0.0138421
0.0137234
0.0135858
0.0134579
0.0133138
0.0131808
0.0130289
0.012894
0.0127409
0.0126045
0.0124504
0.012319
0.0121677
0.0120406
0.0118959
0.0117785
0.0116407
0.011533
0.0114065
0.0113101
0.0111931
0.0111085
0.0110032
0.0109289
0.0108335
0.0107703
0.0106857
0.0106314
0.0105573
0.0105136
0.0104505
0.0104162
0.0103652
0.0103419
0.0103028
0.0102893
0.0102626
0.0102585
0.010242
0.0102452
0.0102375
0.0102453
0.0102427
0.0102527
0.0102534
0.0102628
0.0102641
0.0102722
0.0102732
0.0102786
0.0102786
0.0102817
0.0102803
0.0102808
0.0102779
0.010276
0.0102712
0.0102667
0.0102598
0.0102526
0.0102434
0.0102336
0.0102223
0.0102104
0.0101976
0.0101847
0.0101716
0.0101589
0.0101469
0.0101361
0.0101266
0.0101188
0.0101128
0.0101087
0.0101064
0.0101057
0.0101064
0.0101083
0.0101111
0.0101143
0.0101178
0.0101213
0.0101244
0.010127
0.010129
0.0101304
0.0101312
0.0101314
0.0101311
0.0101303
0.0101294
0.0101284
0.0101276
0.0101272
0.0101274
0.0101283
0.0101299
0.010132
0.0101344
0.0101367
0.0101387
0.0101398
0.0101398
0.0101385
0.0101356
0.0101311
0.010125
0.0101173
0.0101084
0.0100986
0.0100883
0.0100781
0.0100686
0.0100605
0.0100542
0.0100499
0.0100479
0.010048
0.01005
0.0100535
0.0100582
0.0100636
0.0100693
0.0100748
0.0100798
0.0100837
0.0100864
0.0100878
0.0100882
0.0100879
0.0100873
0.0100868
0.0100863
0.0100858
0.010085
0.0100838
0.0100824
0.0100813
0.0100816
0.0100847
0.010092
0.0101047
0.0101237
0.0101487
0.0101789
0.0102128
0.0102483
0.0102835
0.0103163
0.0103454
0.0103702
0.0103908
0.0104078
0.0104226
0.0104365
0.0104513
0.0104685
0.0104893
0.0105146
0.010545
0.0105805
0.0106207
0.0106652
0.0107128
0.0107626
0.0108134
0.0108639
0.0109131
0.0109601
0.011004
0.0110445
0.0110813
0.0111144
0.011144
0.0111703
0.0111937
0.0112147
0.0112335
0.0112506
0.0112662
0.0112807
0.0112941
0.0113067
0.0113185
0.0113296
0.0113398
0.0113492
0.0113578
0.0113655
0.0113723
0.0113785
0.011384
0.0113891
0.0113943
0.0113997
0.0114057
0.0114127
0.0114209
0.0114305
0.0114415
0.0114537
0.011467
0.011481
0.0114954
0.0115099
0.0115243
0.0115384
0.0115521
0.0115655
0.0115786
0.0115912
0.0116031
0.0116141
0.0116238
0.0116319
0.0116383
0.0116429
0.0116461
0.0116483
0.0116503
0.0116525
0.0116555
0.0116595
0.0116647
0.011671
0.0116782
0.0116859
0.0116939
0.0117018
0.0117091
0.0117155
0.0117207
0.0117245
0.0117268
0.0117276
0.0117272
0.0117257
0.0117232
0.0117198
0.0117155
0.0117103
0.0117041
0.0116973
0.0116901
0.0116831
0.011677
0.0116723
0.0116698
0.0116698
0.0116725
0.011678
0.011686
0.0116964
0.0117086
0.0117224
0.0117373
0.0117526
0.0117677
0.0117821
0.0117948
0.0118054
0.0118133
0.011818
0.0118193
0.011817
0.0118111
0.0118019
0.0117894
0.0117743
0.011757
0.0117381
0.0117185
0.0116987
0.0116792
0.0116607
0.0116432
0.0116269
0.0116119
0.0115979
0.0115847
0.0115721
0.0115599
0.0115477
0.0115352
0.0115229
0.0115112
0.0114994
0.0114874
0.0114874
0.04
0.0279877
0.0266925
0.0242637
0.0253836
0.0274073
0.0265165
0.0245806
0.0244455
0.0248579
0.0242528
0.0234057
0.0230345
0.0228049
0.0223652
0.0220113
0.0217582
0.0214783
0.0211711
0.0209693
0.0207806
0.0205631
0.0203577
0.0202058
0.0200414
0.0198699
0.0197165
0.0195816
0.019433
0.0192898
0.01916
0.0190346
0.0189036
0.0187834
0.0186719
0.018563
0.018457
0.0183628
0.0182754
0.0181927
0.0181177
0.0180533
0.017995
0.0179435
0.0179006
0.017866
0.0178369
0.0178144
0.0177986
0.0177882
0.017782
0.0177803
0.0177828
0.0177889
0.0177977
0.0178099
0.0178258
0.0178448
0.0178666
0.0178925
0.0179226
0.0179558
0.017993
0.0180351
0.0180811
0.0181304
0.0181846
0.0182433
0.0183051
0.0183707
0.0184415
0.0185154
0.0185926
0.0186746
0.0187607
0.0188488
0.0189412
0.0190377
0.0191362
0.0192358
0.0193397
0.0194444
0.0195486
0.0196528
0.0197593
0.0198623
0.0199628
0.0200611
0.0201583
0.0202478
0.0203331
0.0204122
0.0204868
0.0205496
0.0206063
0.0206522
0.0206911
0.0207144
0.0207307
0.0207324
0.0207262
0.0207017
0.0206715
0.0206237
0.0205687
0.0204947
0.0204182
0.0203211
0.0202211
0.0201025
0.019985
0.0198453
0.0197103
0.0195557
0.0194068
0.0192365
0.0190784
0.0188983
0.0187315
0.018544
0.0183754
0.0181834
0.0180146
0.017824
0.0176599
0.0174722
0.0173166
0.017137
0.0169918
0.0168217
0.0166902
0.0165318
0.0164137
0.0162677
0.0161644
0.016031
0.0159412
0.0158209
0.0157454
0.015638
0.0155759
0.0154829
0.0154347
0.0153558
0.0153215
0.0152579
0.0152366
0.0151871
0.0151778
0.0151418
0.0151417
0.0151164
0.015123
0.015106
0.0151157
0.0151041
0.0151151
0.0151066
0.0151165
0.0151099
0.0151181
0.0151123
0.0151182
0.015113
0.0151167
0.0151114
0.0151127
0.0151072
0.0151061
0.0150995
0.015096
0.0150882
0.0150822
0.0150729
0.0150648
0.0150546
0.0150452
0.0150348
0.0150256
0.0150163
0.0150086
0.0150018
0.0149969
0.0149935
0.0149921
0.0149923
0.0149943
0.0149977
0.0150022
0.0150077
0.0150137
0.01502
0.0150263
0.0150323
0.0150379
0.0150429
0.0150474
0.0150513
0.0150545
0.0150574
0.0150598
0.0150621
0.0150644
0.015067
0.01507
0.0150736
0.0150779
0.015083
0.0150887
0.0150947
0.0151007
0.0151064
0.0151114
0.0151154
0.0151181
0.0151194
0.0151192
0.0151174
0.0151143
0.0151101
0.0151051
0.0150998
0.0150946
0.0150903
0.0150872
0.0150859
0.0150865
0.0150892
0.0150938
0.0151001
0.0151078
0.0151166
0.0151262
0.0151361
0.0151459
0.0151551
0.0151634
0.0151705
0.0151763
0.0151811
0.0151852
0.0151889
0.0151926
0.0151963
0.0151999
0.0152033
0.0152062
0.0152089
0.0152118
0.015216
0.0152227
0.0152335
0.0152495
0.0152714
0.0152992
0.0153322
0.0153688
0.0154072
0.0154453
0.0154814
0.0155141
0.0155426
0.0155669
0.0155878
0.0156062
0.0156238
0.015642
0.0156623
0.0156858
0.0157136
0.0157461
0.0157833
0.0158251
0.0158708
0.0159195
0.0159701
0.0160217
0.0160729
0.0161228
0.0161705
0.0162152
0.0162566
0.0162942
0.0163282
0.0163585
0.0163856
0.0164097
0.0164311
0.0164504
0.0164678
0.0164837
0.0164983
0.0165118
0.0165245
0.0165364
0.0165476
0.016558
0.0165676
0.0165765
0.0165846
0.0165919
0.0165987
0.0166049
0.0166109
0.0166168
0.0166231
0.0166301
0.0166379
0.0166469
0.0166571
0.0166686
0.0166813
0.0166948
0.016709
0.0167235
0.016738
0.0167524
0.0167665
0.0167802
0.0167936
0.0168067
0.0168194
0.0168314
0.0168425
0.0168523
0.0168605
0.016867
0.016872
0.0168756
0.0168784
0.0168811
0.0168842
0.0168881
0.0168931
0.0168991
0.0169061
0.0169139
0.016922
0.0169303
0.0169383
0.0169457
0.0169523
0.0169578
0.0169619
0.0169648
0.0169664
0.0169668
0.0169662
0.0169646
0.0169621
0.0169587
0.0169544
0.0169491
0.0169431
0.0169367
0.0169306
0.0169252
0.0169212
0.0169193
0.0169198
0.0169229
0.0169286
0.0169369
0.0169474
0.0169598
0.0169737
0.0169888
0.0170043
0.0170196
0.0170341
0.0170471
0.0170579
0.017066
0.017071
0.0170727
0.0170709
0.0170659
0.0170576
0.0170465
0.0170331
0.0170177
0.0170012
0.0169839
0.0169666
0.0169496
0.0169334
0.016918
0.0169034
0.0168898
0.0168769
0.0168645
0.0168524
0.0168404
0.0168286
0.0168165
0.0168041
0.0167918
0.0167796
0.0167676
0.0167676
0.04
0.0296798
0.0310187
0.0314418
0.0316009
0.0292484
0.0276022
0.0285297
0.0294024
0.028288
0.027186
0.0272076
0.0272128
0.0266252
0.0261074
0.025927
0.0256517
0.0252752
0.0250096
0.0248236
0.0245561
0.02431
0.0241332
0.0239587
0.0237444
0.0235679
0.0234168
0.0232532
0.0230808
0.0229375
0.0227975
0.0226507
0.0225105
0.0223886
0.0222652
0.0221444
0.0220353
0.0219377
0.0218412
0.0217538
0.0216779
0.0216106
0.0215485
0.0214978
0.021457
0.021424
0.0213985
0.0213831
0.021375
0.0213736
0.0213782
0.0213894
0.0214053
0.0214254
0.0214491
0.0214772
0.0215089
0.0215437
0.021582
0.0216251
0.0216719
0.0217223
0.0217777
0.0218383
0.0219025
0.0219715
0.0220461
0.0221248
0.0222077
0.0222961
0.0223891
0.0224858
0.0225879
0.0226947
0.0228052
0.0229201
0.0230405
0.0231634
0.0232893
0.0234195
0.0235529
0.0236858
0.0238209
0.0239583
0.024095
0.0242282
0.0243625
0.0244951
0.024623
0.0247446
0.024865
0.0249783
0.0250836
0.0251796
0.025271
0.0253496
0.0254183
0.0254745
0.0255225
0.0255533
0.0255748
0.02558
0.0255751
0.0255518
0.0255203
0.0254688
0.0254099
0.0253318
0.0252472
0.025142
0.0250347
0.0249061
0.0247758
0.0246261
0.0244792
0.0243093
0.0241461
0.0239628
0.0237877
0.0235903
0.0234088
0.0232047
0.023018
0.0228099
0.0226262
0.0224183
0.0222389
0.0220363
0.021867
0.0216715
0.021514
0.0213292
0.0211862
0.0210125
0.0208845
0.0207238
0.0206117
0.0204635
0.0203674
0.0202335
0.0201536
0.0200335
0.0199704
0.0198658
0.0198188
0.0197294
0.0196987
0.0196247
0.0196076
0.0195478
0.0195428
0.019495
0.019498
0.0194602
0.0194687
0.0194377
0.0194482
0.0194229
0.0194335
0.0194116
0.019421
0.0194024
0.0194097
0.0193932
0.0193985
0.0193842
0.0193871
0.0193742
0.0193749
0.0193629
0.019361
0.0193494
0.0193452
0.0193334
0.0193269
0.0193151
0.0193072
0.0192959
0.0192879
0.0192783
0.0192716
0.0192647
0.0192607
0.0192575
0.0192569
0.0192574
0.0192602
0.0192642
0.0192697
0.0192759
0.0192831
0.0192904
0.019298
0.0193053
0.0193123
0.0193188
0.0193248
0.0193302
0.0193351
0.0193396
0.0193438
0.0193479
0.019352
0.0193564
0.0193612
0.0193668
0.019373
0.01938
0.0193875
0.0193954
0.0194033
0.0194109
0.0194178
0.0194238
0.0194285
0.0194317
0.0194335
0.0194339
0.019433
0.019431
0.0194283
0.0194254
0.0194228
0.019421
0.0194204
0.0194213
0.019424
0.0194285
0.0194346
0.0194421
0.0194509
0.0194606
0.0194709
0.0194815
0.019492
0.0195018
0.0195107
0.0195183
0.0195246
0.0195298
0.019534
0.0195378
0.0195413
0.0195448
0.0195482
0.0195514
0.0195542
0.0195568
0.0195597
0.019564
0.0195709
0.0195817
0.0195976
0.0196192
0.0196468
0.0196794
0.0197158
0.0197541
0.0197923
0.0198288
0.0198622
0.0198917
0.0199172
0.0199395
0.0199595
0.0199786
0.0199984
0.0200202
0.0200453
0.0200744
0.0201082
0.0201466
0.0201894
0.020236
0.0202855
0.0203368
0.020389
0.0204408
0.0204913
0.0205395
0.0205848
0.0206266
0.0206647
0.0206991
0.0207299
0.0207572
0.0207814
0.0208028
0.020822
0.0208391
0.0208547
0.0208689
0.020882
0.0208942
0.0209056
0.0209162
0.0209262
0.0209355
0.020944
0.0209519
0.0209592
0.0209659
0.0209722
0.0209784
0.0209846
0.0209913
0.0209987
0.021007
0.0210165
0.0210273
0.0210394
0.0210527
0.0210669
0.0210817
0.0210969
0.0211122
0.0211274
0.0211424
0.0211571
0.0211715
0.0211856
0.0211993
0.0212123
0.0212243
0.0212351
0.0212442
0.0212516
0.0212575
0.0212622
0.0212663
0.0212702
0.0212747
0.0212801
0.0212864
0.0212938
0.021302
0.0213106
0.0213195
0.0213282
0.0213366
0.0213443
0.0213511
0.0213568
0.0213613
0.0213646
0.0213666
0.0213676
0.0213676
0.0213667
0.0213647
0.0213618
0.0213579
0.021353
0.0213475
0.0213417
0.0213361
0.0213313
0.0213279
0.0213265
0.0213274
0.0213309
0.021337
0.0213455
0.0213562
0.0213689
0.0213831
0.0213983
0.0214139
0.0214292
0.0214436
0.0214563
0.0214668
0.0214744
0.0214788
0.0214798
0.0214775
0.0214719
0.0214634
0.0214522
0.021439
0.0214242
0.0214084
0.0213921
0.0213758
0.0213598
0.0213442
0.0213292
0.0213147
0.0213007
0.0212868
0.0212731
0.0212595
0.0212458
0.0212319
0.0212183
0.021205
0.0211919
0.0211791
0.0211671
0.0211671
0.04
0.030924
0.0319998
0.0306413
0.0300331
0.0304062
0.0316795
0.0311963
0.029753
0.0295716
0.0303314
0.0301154
0.0292636
0.0289567
0.0290139
0.0287346
0.028293
0.0280714
0.0279005
0.0276233
0.0273678
0.0272059
0.0270103
0.0267883
0.02661
0.0264616
0.0262797
0.0261038
0.0259559
0.0258113
0.0256513
0.0255079
0.0253782
0.0252468
0.0251151
0.0250006
0.0248924
0.0247859
0.0246873
0.0246025
0.0245223
0.0244487
0.0243859
0.0243343
0.024289
0.0242539
0.0242298
0.0242152
0.0242084
0.0242113
0.0242225
0.0242407
0.0242648
0.024295
0.0243301
0.0243697
0.0244127
0.0244597
0.024511
0.024566
0.0246243
0.0246875
0.0247556
0.0248275
0.0249039
0.0249863
0.0250731
0.0251641
0.0252609
0.0253629
0.0254692
0.0255806
0.0256978
0.0258192
0.0259456
0.0260776
0.0262137
0.0263533
0.0264985
0.0266472
0.0267973
0.0269504
0.0271076
0.027264
0.0274199
0.0275772
0.0277352
0.0278881
0.0280387
0.0281877
0.0283327
0.0284692
0.028601
0.0287262
0.0288437
0.0289491
0.0290467
0.0291328
0.0292087
0.0292688
0.0293191
0.0293546
0.029378
0.0293832
0.0293793
0.0293575
0.0293236
0.0292717
0.0292128
0.029133
0.0290453
0.0289406
0.0288306
0.028699
0.0285666
0.0284156
0.028263
0.0280906
0.0279239
0.0277362
0.0275552
0.0273554
0.0271682
0.0269596
0.0267684
0.0265574
0.0263681
0.026157
0.0259737
0.0257678
0.0255939
0.0253947
0.0252332
0.0250441
0.0248965
0.0247175
0.0245858
0.0244189
0.0243031
0.0241484
0.0240504
0.0239091
0.0238283
0.0237012
0.0236392
0.0235263
0.0234814
0.0233834
0.023355
0.0232701
0.0232554
0.023183
0.023179
0.0231161
0.0231195
0.023065
0.0230723
0.0230238
0.023033
0.0229899
0.0229986
0.0229601
0.0229677
0.0229335
0.0229391
0.0229091
0.0229127
0.0228864
0.0228877
0.0228647
0.0228636
0.0228429
0.0228393
0.0228204
0.0228144
0.0227969
0.0227893
0.0227736
0.0227654
0.0227521
0.022745
0.0227351
0.0227303
0.0227244
0.0227229
0.0227214
0.0227232
0.0227254
0.0227301
0.022735
0.0227414
0.0227478
0.0227548
0.0227615
0.0227682
0.0227744
0.0227803
0.0227855
0.0227904
0.0227949
0.0227992
0.0228035
0.0228078
0.0228125
0.0228177
0.0228236
0.0228302
0.0228375
0.0228454
0.0228537
0.022862
0.02287
0.0228774
0.0228838
0.022889
0.0228928
0.0228953
0.0228965
0.0228964
0.0228954
0.0228939
0.0228923
0.022891
0.0228905
0.0228912
0.0228933
0.0228969
0.0229019
0.0229082
0.0229158
0.0229243
0.0229336
0.0229434
0.0229535
0.0229635
0.0229728
0.0229812
0.0229884
0.0229943
0.0229989
0.0230026
0.0230057
0.0230086
0.0230113
0.023014
0.0230165
0.0230187
0.023021
0.0230237
0.0230278
0.0230346
0.0230453
0.023061
0.0230824
0.0231094
0.0231416
0.0231774
0.0232154
0.0232535
0.0232901
0.0233239
0.0233542
0.0233809
0.0234046
0.0234262
0.0234471
0.0234687
0.0234923
0.0235192
0.0235499
0.0235852
0.0236249
0.0236687
0.0237162
0.0237663
0.0238182
0.0238707
0.0239228
0.0239734
0.0240218
0.0240671
0.024109
0.0241471
0.0241815
0.0242121
0.0242392
0.024263
0.0242841
0.0243026
0.0243191
0.0243339
0.0243472
0.0243594
0.0243706
0.024381
0.0243907
0.0243997
0.024408
0.0244158
0.0244229
0.0244295
0.0244356
0.0244415
0.0244473
0.0244534
0.0244599
0.0244672
0.0244755
0.024485
0.0244959
0.024508
0.0245214
0.0245357
0.0245508
0.0245662
0.0245818
0.0245974
0.0246128
0.024628
0.024643
0.0246576
0.0246719
0.0246855
0.0246981
0.0247094
0.0247191
0.0247272
0.0247337
0.0247392
0.0247441
0.0247491
0.0247547
0.0247612
0.0247687
0.024777
0.0247861
0.0247954
0.0248046
0.0248136
0.024822
0.0248296
0.0248363
0.0248419
0.0248464
0.0248498
0.0248522
0.0248536
0.024854
0.0248535
0.0248521
0.0248497
0.0248462
0.0248419
0.0248369
0.0248317
0.0248267
0.0248225
0.0248197
0.0248188
0.0248202
0.024824
0.0248302
0.0248389
0.0248497
0.0248623
0.0248764
0.0248913
0.0249066
0.0249214
0.0249351
0.0249469
0.0249563
0.0249627
0.024966
0.0249658
0.0249624
0.0249558
0.0249465
0.0249349
0.0249216
0.0249071
0.024892
0.0248765
0.0248612
0.0248461
0.0248313
0.0248166
0.0248021
0.0247876
0.0247729
0.0247578
0.0247425
0.024727
0.0247113
0.0246957
0.0246806
0.0246664
0.0246537
0.0246424
0.0246424
0.04
0.0289159
0.0293759
0.0306582
0.0314602
0.0313794
0.0311684
0.0306879
0.0311316
0.0316408
0.0312126
0.0305397
0.0306782
0.0309232
0.0305872
0.0301385
0.0300656
0.0300211
0.0297467
0.0294887
0.0293685
0.0292205
0.0290038
0.0288395
0.0287106
0.0285461
0.0283716
0.0282374
0.0281023
0.0279483
0.0278044
0.0276823
0.0275528
0.0274212
0.027304
0.0271971
0.0270864
0.0269833
0.0268921
0.0268063
0.0267227
0.02665
0.0265867
0.0265295
0.0264799
0.0264426
0.0264145
0.0263954
0.0263869
0.0263894
0.0264006
0.0264206
0.0264487
0.026484
0.0265253
0.0265718
0.0266225
0.0266781
0.0267377
0.0268003
0.026867
0.0269387
0.0270139
0.0270928
0.0271774
0.0272668
0.0273599
0.0274583
0.0275626
0.0276711
0.0277845
0.0279039
0.0280283
0.0281574
0.0282926
0.0284326
0.028577
0.028727
0.0288819
0.029039
0.0292003
0.0293662
0.0295335
0.0297005
0.0298711
0.0300429
0.0302122
0.0303793
0.0305479
0.0307133
0.0308725
0.0310272
0.0311801
0.0313244
0.0314597
0.0315878
0.0317094
0.0318175
0.0319151
0.0320022
0.0320779
0.0321375
0.0321869
0.0322211
0.032242
0.0322471
0.0322414
0.0322174
0.0321828
0.0321322
0.0320707
0.0319914
0.0319057
0.0318015
0.0316898
0.0315622
0.0314304
0.0312791
0.0311272
0.0309588
0.0307905
0.0306045
0.0304255
0.0302286
0.0300407
0.0298364
0.029647
0.0294393
0.029251
0.0290445
0.0288624
0.0286598
0.0284864
0.0282903
0.028129
0.027941
0.0277928
0.0276146
0.0274821
0.0273138
0.0271975
0.0270412
0.0269429
0.026798
0.0267182
0.0265867
0.0265252
0.0264057
0.0263623
0.0262552
0.026227
0.0261304
0.0261158
0.0260285
0.0260231
0.0259437
0.0259453
0.0258722
0.0258772
0.0258103
0.025817
0.0257554
0.025762
0.0257064
0.025712
0.0256622
0.0256663
0.0256226
0.0256247
0.0255863
0.0255862
0.0255527
0.0255499
0.0255203
0.0255149
0.0254885
0.0254809
0.0254578
0.0254492
0.0254297
0.0254214
0.0254063
0.0254
0.0253897
0.0253863
0.025381
0.0253809
0.0253799
0.0253826
0.0253849
0.0253896
0.0253938
0.0253994
0.0254043
0.0254098
0.0254146
0.0254194
0.0254235
0.0254275
0.0254311
0.0254347
0.0254382
0.0254421
0.0254462
0.025451
0.0254565
0.0254627
0.0254697
0.0254774
0.0254853
0.0254934
0.0255012
0.0255085
0.0255149
0.0255202
0.0255242
0.025527
0.0255286
0.0255291
0.0255289
0.0255283
0.0255277
0.0255275
0.0255282
0.0255299
0.0255328
0.0255369
0.0255422
0.0255484
0.0255555
0.0255634
0.0255719
0.0255808
0.02559
0.0255991
0.0256076
0.0256153
0.0256218
0.0256269
0.0256309
0.0256338
0.0256362
0.0256382
0.0256401
0.025642
0.0256438
0.0256455
0.0256474
0.0256499
0.0256538
0.0256604
0.0256707
0.0256858
0.0257065
0.0257326
0.0257638
0.0257987
0.0258357
0.0258733
0.0259096
0.0259435
0.0259743
0.0260019
0.0260267
0.0260497
0.0260721
0.0260952
0.0261203
0.0261485
0.0261806
0.0262169
0.0262574
0.0263019
0.0263498
0.0264002
0.0264522
0.0265046
0.0265566
0.026607
0.0266551
0.0267002
0.0267418
0.0267797
0.0268137
0.0268439
0.0268704
0.0268936
0.0269138
0.0269314
0.0269468
0.0269602
0.0269722
0.0269829
0.0269925
0.0270014
0.0270094
0.0270169
0.0270237
0.0270299
0.0270357
0.027041
0.027046
0.0270509
0.0270558
0.0270611
0.0270669
0.0270736
0.0270814
0.0270905
0.0271009
0.0271126
0.0271256
0.0271396
0.0271543
0.0271695
0.0271849
0.0272003
0.0272156
0.0272308
0.0272459
0.0272607
0.0272751
0.0272889
0.0273017
0.0273133
0.0273232
0.0273316
0.0273385
0.0273444
0.0273499
0.0273556
0.027362
0.0273693
0.0273776
0.0273866
0.0273961
0.0274057
0.027415
0.0274237
0.0274317
0.0274388
0.0274449
0.02745
0.0274542
0.0274574
0.0274598
0.0274613
0.0274619
0.0274617
0.0274604
0.0274582
0.027455
0.0274509
0.0274462
0.0274412
0.0274365
0.0274327
0.0274302
0.0274294
0.0274309
0.0274346
0.0274408
0.0274492
0.0274597
0.027472
0.0274857
0.0275001
0.0275146
0.0275285
0.027541
0.0275516
0.0275596
0.0275645
0.0275663
0.0275647
0.02756
0.0275524
0.0275423
0.0275303
0.0275169
0.0275026
0.027488
0.0274733
0.0274588
0.0274443
0.02743
0.0274155
0.0274006
0.0273852
0.0273693
0.0273526
0.0273351
0.0273174
0.0272997
0.0272822
0.0272656
0.0272503
0.0272368
0.0272254
0.0272254
0.04
0.0287937
0.0294753
0.0300828
0.0303179
0.0304486
0.030693
0.0312214
0.0316538
0.0311495
0.0309247
0.0314581
0.0317101
0.0312216
0.0309829
0.031215
0.0312339
0.0309006
0.0307294
0.0307481
0.0306365
0.030423
0.030311
0.0302395
0.030092
0.0299412
0.029843
0.0297333
0.0295888
0.0294668
0.0293655
0.0292473
0.0291222
0.0290193
0.028921
0.0288142
0.028714
0.0286286
0.0285424
0.0284561
0.0283801
0.0283127
0.0282458
0.0281858
0.0281367
0.0280952
0.0280598
0.0280361
0.0280238
0.0280207
0.0280275
0.0280456
0.0280727
0.0281079
0.0281506
0.0281997
0.0282545
0.0283143
0.0283776
0.0284451
0.0285173
0.0285927
0.0286712
0.0287549
0.0288433
0.0289346
0.0290309
0.0291331
0.0292393
0.0293498
0.0294665
0.0295885
0.0297152
0.0298476
0.0299858
0.0301286
0.0302774
0.0304314
0.030589
0.0307513
0.0309193
0.031089
0.0312604
0.0314362
0.0316148
0.0317909
0.0319677
0.0321471
0.0323246
0.0324965
0.0326679
0.0328375
0.0330009
0.0331565
0.0333084
0.0334532
0.0335888
0.033714
0.0338309
0.033937
0.0340316
0.0341123
0.0341823
0.0342393
0.0342824
0.03431
0.0343276
0.0343295
0.0343172
0.0342911
0.0342555
0.0342015
0.0341372
0.0340603
0.0339727
0.0338674
0.033757
0.0336315
0.0334977
0.0333492
0.0331992
0.0330327
0.0328654
0.0326849
0.0325079
0.032316
0.0321318
0.0319344
0.0317485
0.0315479
0.0313635
0.0311644
0.0309858
0.0307896
0.0306192
0.0304293
0.0302699
0.0300863
0.02994
0.0297653
0.0296334
0.0294672
0.0293523
0.0291965
0.0290986
0.028953
0.0288745
0.0287391
0.0286781
0.028553
0.0285098
0.0283931
0.0283644
0.0282561
0.0282398
0.0281376
0.0281304
0.0280347
0.0280338
0.0279432
0.0279462
0.027862
0.0278665
0.0277884
0.0277936
0.0277228
0.0277271
0.0276639
0.0276672
0.0276116
0.0276126
0.0275641
0.0275626
0.02752
0.0275155
0.0274782
0.0274711
0.0274386
0.0274298
0.0274024
0.0273933
0.0273713
0.0273636
0.0273474
0.0273422
0.0273318
0.0273297
0.0273245
0.0273251
0.0273238
0.0273265
0.0273278
0.0273314
0.027334
0.0273378
0.0273405
0.0273438
0.0273463
0.027349
0.0273511
0.0273535
0.0273558
0.0273586
0.0273617
0.0273657
0.0273703
0.0273757
0.027382
0.0273889
0.0273962
0.0274036
0.0274109
0.0274176
0.0274236
0.0274286
0.0274326
0.0274353
0.0274371
0.027438
0.0274383
0.0274383
0.0274385
0.0274391
0.0274406
0.027443
0.0274463
0.0274506
0.0274557
0.0274614
0.0274677
0.0274745
0.0274817
0.0274893
0.0274971
0.0275049
0.0275121
0.0275186
0.027524
0.0275281
0.027531
0.0275329
0.0275342
0.0275352
0.0275361
0.0275369
0.0275378
0.0275387
0.02754
0.027542
0.0275455
0.0275517
0.0275616
0.0275761
0.0275958
0.0276209
0.0276507
0.0276842
0.02772
0.0277564
0.0277918
0.0278252
0.0278558
0.0278835
0.0279088
0.0279326
0.0279559
0.0279801
0.0280064
0.0280356
0.0280686
0.0281057
0.0281469
0.0281919
0.02824
0.0282904
0.0283423
0.0283945
0.028446
0.028496
0.0285436
0.0285881
0.0286292
0.0286664
0.0286998
0.0287292
0.0287549
0.0287771
0.0287962
0.0288124
0.0288263
0.0288382
0.0288485
0.0288573
0.0288651
0.028872
0.028878
0.0288835
0.0288883
0.0288926
0.0288965
0.0289
0.0289034
0.0289067
0.0289103
0.0289142
0.0289189
0.0289245
0.0289312
0.0289393
0.0289489
0.0289598
0.028972
0.0289852
0.0289992
0.0290138
0.0290286
0.0290436
0.0290585
0.0290734
0.0290882
0.0291029
0.0291172
0.0291309
0.0291438
0.0291553
0.0291653
0.0291737
0.0291808
0.029187
0.0291928
0.0291989
0.0292058
0.0292136
0.0292223
0.0292317
0.0292413
0.0292508
0.0292597
0.029268
0.0292752
0.0292815
0.0292869
0.0292912
0.0292947
0.0292974
0.0292994
0.0293007
0.0293012
0.0293009
0.0292996
0.0292974
0.0292941
0.02929
0.0292854
0.0292805
0.0292759
0.0292722
0.0292697
0.029269
0.0292703
0.0292739
0.0292798
0.0292879
0.0292981
0.0293099
0.0293229
0.0293366
0.0293501
0.0293628
0.0293739
0.0293828
0.0293891
0.0293923
0.0293922
0.029389
0.0293828
0.0293739
0.0293628
0.0293502
0.0293364
0.0293222
0.0293077
0.0292934
0.0292792
0.029265
0.0292506
0.0292358
0.0292203
0.0292038
0.0291861
0.0291675
0.0291479
0.0291276
0.0291072
0.0290873
0.0290687
0.0290521
0.0290378
0.0290262
0.0290262
0.04
0.029521
0.0300814
0.0297549
0.030137
0.0306119
0.0307878
0.0308348
0.0308392
0.0310229
0.0315152
0.031506
0.0311851
0.0312736
0.0316457
0.0315852
0.0313058
0.0313109
0.0314509
0.0313482
0.0311676
0.031138
0.0311344
0.0310186
0.0309026
0.0308517
0.0307797
0.0306646
0.0305723
0.0305012
0.0304054
0.0303018
0.0302193
0.03014
0.0300468
0.0299606
0.0298869
0.0298107
0.0297309
0.0296608
0.029596
0.0295295
0.0294663
0.0294123
0.029362
0.0293156
0.0292782
0.0292509
0.029231
0.0292213
0.0292232
0.0292355
0.0292573
0.0292892
0.0293296
0.0293774
0.029432
0.0294919
0.0295562
0.0296258
0.0296991
0.0297751
0.0298558
0.0299412
0.0300291
0.0301209
0.0302187
0.0303204
0.0304255
0.0305367
0.0306536
0.0307744
0.030901
0.0310337
0.0311716
0.0313149
0.0314643
0.031618
0.0317772
0.0319421
0.0321103
0.032281
0.0324573
0.0326367
0.0328158
0.0329961
0.0331806
0.033364
0.033544
0.0337238
0.0339049
0.0340803
0.0342496
0.0344165
0.0345803
0.0347339
0.0348792
0.035019