# vtk DataFile Version 3.0
LBM output step 490
ASCII
DATASET STRUCTURED_POINTS
DIMENSIONS 400 100 1
ORIGIN 0 0 0
SPACING 1 1 1
POINT_DATA 40000
SCALARS velocity_magnitude double 1
LOOKUP_TABLE default
0
0
0
0
0
0
0
0
0
0
0
0
0
0
0
0
0
0
0
0
0
0
0
0
0
0
0
0
0
0
0
0
0
0
0
0
0
0
0
0
0
0
0
0
0
0
0
0
0
0
0
0
0
0
0
0
0
0
0
0
0
0
0
0
0
0
0
0
0
0
0
0
0
0
0
0
0
0
0
0
0
0
0
0
0
0
0
0
0
0
0
0
0
0
0
0
0
0
0
0
0
0
0
0
0
0
0
0
0
0
0
0
0
0
0
0
0
0
0
0
0
0
0
0
0
0
0
0
0
0
0
0
0
0
0
0
0
0
0
0
0
0
0
0
0
0
0
0
0
0
0
0
0
0
0
0
0
0
0
0
0
0
0
0
0
0
0
0
0
0
0
0
0
0
0
0
0
0
0
0
0
0
0
0
0
0
0
0
0
0
0
0
0
0
0
0
0
0
0
0
0
0
0
0
0
0
0
0
0
0
0
0
0
0
0
0
0
0
0
0
0
0
0
0
0
0
0
0
0
0
0
0
0
0
0
0
0
0
0
0
0
0
0
0
0
0
0
0
0
0
0
0
0
0
0
0
0
0
0
0
0
0
0
0
0
0
0
0
0
0
0
0
0
0
0
0
0
0
0
0
0
0
0
0
0
0
0
0
0
0
0
0
0
0
0
0
0
0
0
0
0
0
0
0
0
0
0
0
0
0
0
0
0
0
0
0
0
0
0
0
0
0
0
0
0
0
0
0
0
0
0
0
0
0
0
0
0
0
0
0
0
0
0
0
0
0
0
0
0
0
0
0
0
0
0
0
0
0
0
0
0
0
0
0
0
0
0
0
0
0
0
0
0
0
0
0
0
0
0
0
0
0
0
0
0
0
0
0
0
0
0
0
0
0
0
0
0
0
0
0
0.04
0.0137277
0.00835343
0.0140629
0.0161625
0.0156621
0.0128826
0.0126213
0.0127847
0.0129578
0.0127719
0.012975
0.0129312
0.0129964
0.0130919
0.0132841
0.0132936
0.013324
0.0133409
0.0133409
0.0132536
0.0131646
0.0130575
0.012905
0.0127451
0.0125712
0.012418
0.0122125
0.0120508
0.0118455
0.0116861
0.0114709
0.0113177
0.0111161
0.0109605
0.0107586
0.0105965
0.010395
0.0102202
0.0100261
0.00985961
0.00968745
0.00953955
0.00939868
0.00927858
0.00916949
0.00907845
0.00899921
0.00892993
0.00886606
0.00880607
0.00875124
0.00870494
0.00867227
0.00865546
0.00865544
0.008668
0.00868925
0.0087159
0.00874641
0.0087778
0.00880981
0.00884315
0.00887985
0.00892432
0.00898292
0.00905644
0.00913865
0.00922007
0.00929144
0.0093476
0.00939291
0.00943775
0.00948771
0.00954054
0.00958912
0.00962491
0.00964328
0.00965236
0.00966881
0.00970678
0.00977012
0.009853
0.00993817
0.0100055
0.0100454
0.0100679
0.0100937
0.010147
0.0102452
0.0103904
0.0105622
0.0107279
0.0108541
0.010916
0.0109017
0.0108177
0.0106828
0.0105212
0.0103546
0.0102011
0.010071
0.00996734
0.00988864
0.00983244
0.00979283
0.00976477
0.00974501
0.00973089
0.00971867
0.00970763
0.00969745
0.00968685
0.0096748
0.00966246
0.0096493
0.00963447
0.00961844
0.00960229
0.00958505
0.00956683
0.00954933
0.00953318
0.00951743
0.00950387
0.00949446
0.00948833
0.00948542
0.0094883
0.0094966
0.00950835
0.00952466
0.00954664
0.00957162
0.00959856
0.00962921
0.00966261
0.00969602
0.00973017
0.00976591
0.00980068
0.00983316
0.00986526
0.00989695
0.00992639
0.00995466
0.00998351
0.0100113
0.0100366
0.0100605
0.0100834
0.0101039
0.0101238
0.010146
0.0101713
0.0101997
0.0102321
0.0102677
0.0103029
0.0103344
0.0103605
0.0103785
0.0103866
0.0103855
0.0103778
0.0103652
0.0103494
0.0103323
0.010314
0.0102925
0.0102662
0.0102349
0.0101993
0.0101616
0.0101259
0.0100963
0.0100753
0.0100635
0.0100595
0.01006
0.0100606
0.0100578
0.0100492
0.0100348
0.0100161
0.00999682
0.00998089
0.00997162
0.0099709
0.00997892
0.00999424
0.0100147
0.0100387
0.0100657
0.0100966
0.0101326
0.0101754
0.0102255
0.0102818
0.010342
0.0104026
0.0104598
0.01051
0.0105509
0.0105818
0.0106036
0.0106182
0.0106286
0.010639
0.0106546
0.0106815
0.0107263
0.0107948
0.0108916
0.0110196
0.0111796
0.01137
0.0115855
0.011818
0.0120581
0.0122963
0.0125237
0.0127327
0.0129185
0.0130782
0.0132107
0.0133167
0.0134003
0.0134679
0.0135262
0.0135813
0.0136387
0.0137027
0.0137738
0.0138502
0.0139327
0.0140258
0.0141304
0.0142384
0.0143395
0.0144339
0.0145339
0.0146488
0.0147725
0.0148909
0.0149993
0.0151069
0.0152229
0.0153465
0.0154718
0.0155966
0.0157215
0.0158421
0.0159519
0.0160543
0.0161669
0.0163029
0.0164483
0.0165665
0.0166392
0.0167036
0.0168341
0.0170679
0.0173468
0.0175522
0.0176131
0.0175889
0.0176349
0.0178646
0.0182393
0.0186036
0.0188414
0.0189901
0.0191831
0.0194591
0.019616
0.0192671
0.018111
0.0162421
0.0142469
0.0129887
0.0132137
0.015138
0.0181077
0.0205927
0.0209143
0.0184455
0.0140992
0.00949571
0.00578666
0.00327944
0.00176687
0.000918646
0.000465149
0.000230559
0.000112186
5.36705e-05
2.52691e-05
1.17183e-05
5.35794e-06
2.4189e-06
1.08056e-06
4.79102e-07
2.11729e-07
9.37273e-08
4.17994e-08
1.88884e-08
8.66351e-09
4.03468e-09
1.90185e-09
8.97002e-10
4.13997e-10
1.81123e-10
7.50814e-11
2.47868e-11
3.91749e-12
6.90066e-12
1.27831e-11
1.11555e-11
1.04803e-11
7.54945e-12
6.90943e-12
3.96862e-12
6.4433e-12
7.9306e-12
2.72746e-12
2.64729e-12
2.18849e-12
1.82133e-12
3.91219e-12
2.50338e-12
1.25513e-12
2.71201e-12
1.70826e-12
7.17283e-13
3.84137e-13
5.90524e-13
1.31014e-12
9.79584e-13
1.88067e-13
5.83596e-13
5.58196e-13
7.25302e-13
3.81888e-13
3.27212e-13
6.14952e-13
3.27258e-13
2.58747e-13
2.93831e-13
3.85897e-13
3.6416e-13
1.49936e-13
4.07449e-13
1.9155e-13
2.01866e-13
2.47045e-13
1.86448e-14
1.40498e-13
6.44072e-14
4.70465e-14
5.91752e-14
9.8698e-15
1.56111e-14
8.50752e-15
1.34352e-14
9.34618e-15
6.452e-15
6.28124e-15
6.77969e-15
6.89119e-15
6.75699e-15
6.5211e-15
6.25851e-15
5.90198e-15
6.06425e-15
5.41875e-15
5.66128e-15
5.12969e-15
4.72525e-15
4.77103e-15
5.23722e-15
4.96697e-15
5.02728e-15
4.64935e-15
4.76731e-15
4.56296e-15
4.71357e-15
4.71516e-15
4.99955e-15
4.98227e-15
5.26315e-15
4.8261e-15
4.72618e-15
4.44761e-15
4.49523e-15
4.5096e-15
4.32702e-15
4.20346e-15
4.66566e-15
4.66566e-15
0.04
0.0219029
0.0227761
0.0201449
0.0135187
0.01348
0.0167518
0.0174537
0.0160737
0.0158481
0.0163334
0.0165525
0.0166453
0.0170526
0.0173404
0.0174968
0.017686
0.0179293
0.0180079
0.0180155
0.0180388
0.0180358
0.0179688
0.0178787
0.0178339
0.017723
0.0176436
0.0175112
0.0174608
0.0173011
0.0172416
0.0170836
0.0170355
0.0168642
0.0168096
0.0166473
0.0165791
0.0164145
0.0163376
0.0161924
0.0161141
0.0159963
0.0159354
0.0158528
0.0158094
0.0157596
0.0157379
0.015715
0.0157089
0.0157039
0.0157086
0.0157157
0.0157333
0.0157625
0.0158076
0.0158657
0.015936
0.0160145
0.0160965
0.0161792
0.0162637
0.0163495
0.0164362
0.0165282
0.0166309
0.0167448
0.01687
0.0170044
0.0171378
0.0172595
0.0173691
0.0174716
0.0175708
0.0176719
0.0177781
0.0178798
0.017966
0.0180378
0.0181044
0.0181742
0.0182593
0.0183686
0.0184943
0.0186156
0.0187185
0.0187989
0.018861
0.018922
0.0190089
0.0191375
0.0193036
0.0194878
0.0196621
0.0197922
0.0198522
0.0198335
0.0197445
0.0196025
0.0194323
0.0192576
0.0190958
0.0189567
0.0188451
0.0187584
0.0186927
0.0186438
0.0186059
0.0185738
0.0185466
0.0185208
0.0184933
0.0184652
0.0184376
0.018406
0.0183718
0.0183388
0.0183038
0.0182646
0.0182268
0.0181904
0.0181509
0.0181116
0.0180771
0.0180433
0.0180097
0.017982
0.0179604
0.0179407
0.017926
0.0179196
0.0179181
0.0179196
0.0179277
0.0179421
0.0179584
0.0179772
0.0180009
0.0180265
0.0180511
0.018077
0.0181046
0.0181308
0.0181552
0.0181805
0.0182058
0.018229
0.0182514
0.0182741
0.0182953
0.0183139
0.0183316
0.0183494
0.0183668
0.0183854
0.0184078
0.0184343
0.0184629
0.0184925
0.0185215
0.0185459
0.018563
0.0185723
0.0185742
0.0185685
0.0185569
0.0185418
0.0185239
0.0185029
0.0184789
0.0184516
0.0184198
0.0183834
0.0183442
0.0183048
0.0182681
0.0182373
0.0182149
0.0182015
0.0181958
0.0181958
0.0181993
0.0182041
0.0182092
0.0182148
0.0182218
0.0182314
0.0182449
0.0182635
0.0182874
0.0183161
0.0183491
0.0183858
0.0184261
0.0184708
0.0185213
0.0185791
0.0186444
0.0187163
0.0187922
0.0188679
0.0189388
0.0190008
0.019051
0.0190887
0.0191155
0.0191347
0.0191511
0.0191698
0.019196
0.0192348
0.0192906
0.0193676
0.019469
0.0195971
0.0197528
0.0199354
0.0201424
0.0203687
0.0206069
0.0208491
0.0210871
0.0213135
0.021522
0.0217079
0.0218687
0.0220031
0.0221115
0.0221971
0.0222656
0.0223229
0.0223743
0.0224253
0.0224805
0.0225417
0.0226068
0.0226755
0.022751
0.0228351
0.0229222
0.0230033
0.0230772
0.023153
0.0232382
0.0233283
0.0234118
0.023486
0.0235587
0.023636
0.0237144
0.0237876
0.0238563
0.0239252
0.0239903
0.0240412
0.0240766
0.0241131
0.0241666
0.0242265
0.0242586
0.0242447
0.024219
0.0242487
0.0243635
0.024506
0.0245689
0.0244943
0.0243425
0.0242536
0.0243242
0.0245127
0.0246688
0.0246766
0.0245682
0.0244822
0.0244797
0.0243751
0.0237719
0.0223494
0.0202052
0.0179538
0.0164707
0.0164677
0.0181125
0.0207382
0.0228354
0.0227426
0.0198405
0.0150711
0.0101066
0.00613611
0.0034651
0.00186028
0.000963652
0.000485951
0.000239716
0.000115948
5.50429e-05
2.56484e-05
1.17256e-05
5.25399e-06
2.30341e-06
9.85076e-07
4.08631e-07
1.62598e-07
6.05685e-08
1.98375e-08
4.5639e-09
1.27868e-09
2.30004e-09
2.25315e-09
1.83207e-09
1.37114e-09
1.00875e-09
7.14842e-10
5.00381e-10
3.53086e-10
2.40833e-10
1.65639e-10
1.10464e-10
8.12529e-11
5.38045e-11
3.02897e-11
2.5537e-11
1.3135e-11
9.58216e-12
9.37722e-12
1.29163e-12
2.29544e-12
2.12696e-12
1.76593e-12
1.70402e-12
1.43391e-12
6.9105e-13
8.06054e-13
2.15862e-13
5.14512e-14
7.44769e-13
9.5376e-13
4.11089e-13
5.42523e-13
6.70228e-13
6.89684e-13
2.50582e-13
6.41535e-13
8.48228e-13
3.32637e-13
5.97484e-13
4.3763e-13
4.35662e-13
3.2109e-13
2.7638e-13
4.47133e-13
1.3938e-13
2.86138e-13
2.47264e-13
8.43905e-14
1.92263e-13
7.20514e-14
8.70553e-14
5.61879e-14
1.26157e-14
4.55522e-14
1.56408e-14
5.25954e-15
1.15614e-14
1.17669e-14
8.53816e-15
8.90417e-15
9.02681e-15
8.37928e-15
8.40243e-15
8.49454e-15
7.84127e-15
7.53544e-15
7.70705e-15
7.83429e-15
7.71923e-15
7.99352e-15
7.4196e-15
7.42548e-15
7.26895e-15
7.34922e-15
6.84987e-15
6.85564e-15
6.60303e-15
6.9728e-15
6.67609e-15
6.93414e-15
6.86589e-15
7.1622e-15
7.15791e-15
7.09733e-15
6.57693e-15
6.25389e-15
6.29196e-15
6.32259e-15
6.62592e-15
7.15479e-15
7.32749e-15
7.32749e-15
0.04
0.0232635
0.0209285
0.0176214
0.0187616
0.0208897
0.0198347
0.0184285
0.0189556
0.0197467
0.019502
0.0193481
0.0197348
0.0201448
0.0203236
0.0206212
0.0209444
0.0211339
0.0212279
0.0213585
0.021437
0.021437
0.021442
0.0214575
0.0214676
0.0214174
0.0214325
0.0213802
0.0213928
0.0212977
0.0213333
0.0212216
0.0212454
0.0211068
0.0211274
0.0209708
0.020967
0.0208135
0.020802
0.020666
0.0206545
0.0205613
0.0205653
0.0205159
0.020538
0.0205276
0.0205604
0.0205734
0.0206121
0.0206401
0.0206829
0.0207224
0.0207747
0.0208331
0.020905
0.0209858
0.0210775
0.0211738
0.0212706
0.0213669
0.0214641
0.0215613
0.0216614
0.0217695
0.0218866
0.0220117
0.0221465
0.0222877
0.0224262
0.0225568
0.02268
0.0227955
0.0229065
0.0230207
0.0231387
0.0232519
0.0233567
0.0234543
0.0235459
0.0236382
0.0237448
0.0238694
0.024003
0.0241338
0.0242532
0.0243525
0.0244342
0.0245167
0.0246224
0.024761
0.0249314
0.0251206
0.0253022
0.0254421
0.0255179
0.0255212
0.0254557
0.0253349
0.0251828
0.0250226
0.0248702
0.024735
0.0246242
0.0245369
0.0244671
0.0244111
0.0243673
0.0243275
0.0242878
0.0242502
0.0242124
0.0241685
0.0241224
0.0240764
0.0240254
0.0239698
0.0239153
0.0238592
0.0237986
0.0237386
0.0236806
0.0236205
0.0235602
0.023504
0.0234497
0.0233958
0.0233465
0.0233029
0.0232621
0.0232254
0.0231959
0.0231718
0.023151
0.0231356
0.0231263
0.0231197
0.023115
0.023114
0.0231154
0.0231167
0.023119
0.0231235
0.0231285
0.0231328
0.0231377
0.0231431
0.0231468
0.023149
0.0231511
0.0231529
0.0231538
0.0231553
0.0231591
0.023165
0.0231727
0.0231831
0.0231952
0.0232068
0.0232158
0.023222
0.0232242
0.0232216
0.0232149
0.0232046
0.0231898
0.0231692
0.0231424
0.0231087
0.0230674
0.0230193
0.0229659
0.0229085
0.0228483
0.0227876
0.0227288
0.0226736
0.0226237
0.0225803
0.0225437
0.0225138
0.0224908
0.0224754
0.0224682
0.0224694
0.0224785
0.022494
0.0225135
0.0225345
0.0225552
0.0225747
0.0225933
0.022612
0.022633
0.0226588
0.0226916
0.0227328
0.0227825
0.0228384
0.022896
0.0229494
0.0229926
0.0230203
0.0230298
0.0230216
0.0229997
0.0229703
0.0229415
0.0229212
0.0229159
0.0229302
0.0229663
0.0230244
0.0231039
0.0232037
0.0233219
0.0234562
0.0236036
0.0237609
0.0239237
0.0240877
0.0242488
0.0244029
0.0245457
0.0246736
0.0247837
0.0248741
0.0249438
0.0249942
0.0250284
0.0250498
0.0250612
0.0250669
0.0250724
0.0250814
0.025093
0.0251049
0.0251189
0.0251376
0.025159
0.0251767
0.0251888
0.0252005
0.0252167
0.025234
0.0252451
0.02525
0.0252553
0.0252636
0.0252677
0.0252618
0.0252507
0.0252443
0.0252395
0.0252198
0.0251773
0.0251277
0.0250934
0.025071
0.0250296
0.0249487
0.0248541
0.0248007
0.024814
0.0248499
0.0248238
0.0246909
0.0245011
0.024368
0.0243685
0.0244658
0.0245273
0.0244425
0.0242393
0.0240658
0.0240131
0.0239175
0.0233686
0.022013
0.0199317
0.0177277
0.0162416
0.0161464
0.0176221
0.0200923
0.0221626
0.0222106
0.0195391
0.0149695
0.0101145
0.00617888
0.00350674
0.00189079
0.000983526
0.000498168
0.000246996
0.000120215
5.75234e-05
2.70871e-05
1.2562e-05
5.74326e-06
2.59217e-06
1.1574e-06
5.12794e-07
2.26343e-07
1.00045e-07
4.45493e-08
2.00755e-08
9.19216e-09
4.28072e-09
2.01936e-09
9.42572e-10
4.36839e-10
2.05541e-10
8.00811e-11
3.69129e-11
2.26286e-11
1.92957e-11
1.37347e-11
1.49156e-11
3.07236e-12
7.22569e-12
1.0007e-11
2.81318e-12
3.36989e-12
2.00069e-12
2.49398e-12
4.20509e-12
2.82275e-12
5.87761e-13
8.76201e-13
1.35562e-12
1.87171e-12
1.44241e-12
5.53918e-13
5.66064e-13
4.29335e-13
7.43523e-13
1.0428e-12
5.2128e-14
8.92995e-13
7.89553e-13
3.79383e-13
3.23506e-13
3.24394e-13
8.51069e-13
5.42571e-13
3.59703e-13
7.24187e-13
2.74911e-13
3.18646e-13
3.76917e-13
2.46494e-13
2.60093e-13
1.91689e-13
2.23609e-13
1.17743e-13
1.42982e-13
9.79109e-14
3.41985e-14
7.83919e-14
1.90282e-14
2.36077e-14
2.45328e-14
1.40601e-14
2.50498e-15
8.27814e-15
9.97472e-15
6.6639e-15
6.60981e-15
7.89489e-15
7.43133e-15
7.44376e-15
7.27287e-15
7.02043e-15
7.39033e-15
7.27836e-15
7.36702e-15
7.53384e-15
6.97593e-15
7.2762e-15
7.07686e-15
7.42276e-15
7.11176e-15
7.09663e-15
6.92593e-15
7.15432e-15
6.87137e-15
6.98611e-15
6.82265e-15
6.90093e-15
7.11611e-15
7.12071e-15
6.95749e-15
6.66275e-15
6.50677e-15
5.98429e-15
5.76384e-15
5.80502e-15
5.78465e-15
5.78465e-15
0.04
0.025106
0.0262465
0.0258869
0.0252662
0.0225149
0.0210283
0.0221488
0.0228609
0.0218932
0.0213279
0.0218896
0.0222347
0.0221488
0.0222994
0.0227421
0.022981
0.0231108
0.0233161
0.0235088
0.0235672
0.0236251
0.0237374
0.0238087
0.0238491
0.0238878
0.023973
0.0239654
0.024021
0.0239963
0.0240808
0.0239971
0.0240671
0.0239487
0.0239964
0.0238251
0.0238534
0.0236805
0.0236931
0.0235369
0.0235581
0.0234502
0.023484
0.0234332
0.0234882
0.0234816
0.0235408
0.0235596
0.0236153
0.0236468
0.0237016
0.0237467
0.023809
0.0238724
0.0239491
0.0240313
0.0241228
0.0242149
0.0243069
0.0243978
0.0244888
0.0245807
0.0246793
0.0247866
0.0249002
0.0250204
0.0251472
0.0252759
0.0254032
0.0255287
0.0256487
0.025761
0.025871
0.0259826
0.0260943
0.026206
0.0263188
0.0264274
0.0265306
0.0266366
0.0267519
0.0268738
0.0270019
0.0271328
0.0272552
0.0273601
0.027455
0.0275526
0.0276638
0.027799
0.0279639
0.028145
0.0283166
0.0284528
0.0285341
0.0285463
0.0284905
0.0283811
0.0282384
0.0280813
0.0279287
0.0277918
0.0276748
0.0275788
0.0275023
0.0274378
0.0273819
0.0273324
0.0272837
0.0272321
0.0271803
0.0271254
0.027064
0.0270002
0.0269351
0.0268638
0.0267893
0.0267161
0.02664
0.02656
0.0264822
0.0264056
0.0263262
0.0262478
0.0261736
0.0260999
0.0260264
0.0259578
0.0258941
0.0258322
0.0257744
0.0257237
0.0256779
0.0256352
0.0255978
0.0255661
0.0255368
0.0255092
0.0254853
0.0254644
0.0254441
0.0254253
0.0254096
0.025395
0.0253796
0.0253641
0.0253489
0.0253324
0.0253144
0.0252973
0.0252822
0.0252681
0.0252558
0.0252467
0.0252391
0.0252304
0.0252203
0.0252083
0.0251923
0.0251723
0.0251508
0.0251289
0.0251059
0.0250814
0.025054
0.0250196
0.0249747
0.0249184
0.0248513
0.0247742
0.0246898
0.0246012
0.0245106
0.0244191
0.0243289
0.0242417
0.0241588
0.0240812
0.0240104
0.0239477
0.0238948
0.0238537
0.0238268
0.0238145
0.0238154
0.0238265
0.0238431
0.0238606
0.0238756
0.023887
0.0238955
0.0239032
0.023913
0.0239276
0.0239492
0.0239785
0.0240148
0.024055
0.0240937
0.0241239
0.0241386
0.0241324
0.0241027
0.0240514
0.0239845
0.0239113
0.0238428
0.0237893
0.0237588
0.0237553
0.0237794
0.023828
0.0238968
0.0239809
0.0240752
0.0241751
0.0242773
0.0243801
0.0244824
0.0245838
0.0246843
0.0247832
0.0248789
0.0249686
0.0250498
0.0251199
0.0251769
0.02522
0.0252498
0.0252668
0.0252713
0.0252657
0.0252557
0.025247
0.0252405
0.025234
0.0252268
0.0252213
0.0252178
0.0252135
0.0252069
0.025201
0.0251983
0.0251957
0.0251881
0.0251767
0.0251675
0.0251615
0.0251505
0.0251299
0.0251077
0.0250949
0.0250854
0.0250575
0.0250014
0.0249377
0.0248968
0.0248791
0.0248479
0.0247732
0.0246748
0.0246095
0.0246101
0.0246407
0.024622
0.0245099
0.0243485
0.0242414
0.0242611
0.0243709
0.0244334
0.0243248
0.0240664
0.0238289
0.0237545
0.0237248
0.0233251
0.0221419
0.020178
0.0179943
0.0164383
0.0162194
0.017576
0.0200019
0.0221394
0.0223232
0.0197635
0.0152226
0.0103248
0.00632134
0.00359077
0.00193585
0.00100602
0.000508695
0.000251562
0.000121975
5.80483e-05
2.71198e-05
1.24337e-05
5.58935e-06
2.45984e-06
1.05703e-06
4.41386e-07
1.77421e-07
6.72738e-08
2.29435e-08
6.18434e-09
1.73744e-09
2.28433e-09
2.22851e-09
1.83452e-09
1.4111e-09
1.02094e-09
7.33965e-10
5.22377e-10
3.54778e-10
2.46617e-10
1.74702e-10
1.24678e-10
7.79196e-11
5.01558e-11
3.86425e-11
2.16844e-11
1.82482e-11
1.23193e-11
2.10472e-12
4.53357e-12
3.76016e-12
2.57636e-12
1.12618e-12
1.16099e-12
1.86815e-12
8.23251e-13
5.30814e-13
4.50514e-13
1.79961e-13
1.20193e-12
5.36153e-13
3.83617e-13
4.66918e-13
4.0914e-13
6.30793e-13
5.82947e-14
8.9203e-13
8.05034e-13
2.87957e-13
6.62934e-13
3.11658e-13
3.02112e-13
2.087e-13
3.24679e-13
2.90126e-13
1.26635e-13
3.04982e-13
1.23957e-13
1.42049e-13
1.58047e-13
4.42449e-14
8.39857e-14
3.89722e-14
4.26206e-14
1.95229e-14
8.06826e-15
1.868e-14
6.24581e-15
4.06166e-15
9.19021e-15
8.72354e-15
7.2529e-15
7.49269e-15
7.7024e-15
7.60987e-15
7.46223e-15
7.36712e-15
7.5351e-15
7.2506e-15
7.41852e-15
7.04911e-15
7.11931e-15
6.98133e-15
7.14102e-15
7.12805e-15
7.12908e-15
7.05336e-15
6.7243e-15
6.64069e-15
6.83837e-15
6.84586e-15
6.79712e-15
7.07209e-15
6.72896e-15
7.10278e-15
7.00416e-15
6.56152e-15
6.383e-15
6.2368e-15
6.31292e-15
6.17057e-15
6.3026e-15
6.3026e-15
0.04
0.025683
0.0267236
0.0253009
0.0244156
0.0244022
0.0253163
0.0246125
0.0232576
0.0232914
0.0240726
0.0239059
0.0233596
0.0235168
0.0239272
0.0240112
0.0240466
0.0243179
0.0245397
0.0246167
0.0247216
0.0248911
0.0249962
0.0250625
0.0251774
0.0252752
0.0253482
0.0253743
0.0254819
0.0254891
0.0255786
0.0255311
0.025632
0.0255108
0.0255682
0.0253962
0.0254375
0.0252342
0.0252589
0.0250786
0.0251069
0.0249701
0.02502
0.0249537
0.0250223
0.0250079
0.025082
0.0250951
0.0251585
0.0251871
0.0252471
0.0252903
0.0253545
0.0254135
0.0254867
0.0255622
0.0256464
0.0257296
0.025814
0.0258948
0.0259737
0.0260558
0.0261472
0.0262472
0.0263543
0.0264668
0.0265792
0.0266889
0.0267993
0.0269107
0.0270198
0.0271269
0.0272328
0.0273347
0.0274356
0.0275411
0.0276497
0.0277585
0.0278711
0.0279869
0.0281017
0.0282176
0.0283389
0.0284595
0.028573
0.0286804
0.0287854
0.0288891
0.0290008
0.0291323
0.0292848
0.029445
0.0295967
0.029721
0.0297967
0.0298089
0.0297591
0.0296588
0.0295234
0.0293696
0.0292167
0.0290773
0.0289552
0.0288504
0.0287651
0.0286935
0.0286274
0.0285664
0.0285102
0.0284494
0.0283837
0.0283187
0.0282499
0.0281719
0.0280928
0.028014
0.0279282
0.0278387
0.0277524
0.027664
0.0275712
0.0274805
0.0273926
0.0273017
0.0272107
0.0271239
0.0270383
0.0269519
0.0268694
0.0267919
0.0267165
0.0266443
0.0265786
0.0265184
0.0264611
0.0264083
0.0263614
0.0263179
0.026276
0.0262376
0.0262035
0.0261709
0.0261394
0.0261107
0.0260833
0.0260545
0.0260252
0.0259971
0.0259696
0.0259427
0.0259186
0.0258982
0.0258792
0.0258598
0.0258399
0.0258178
0.0257906
0.0257587
0.0257243
0.0256876
0.0256498
0.0256137
0.02558
0.0255458
0.025508
0.0254631
0.0254069
0.0253362
0.0252515
0.0251557
0.0250516
0.0249423
0.0248314
0.0247213
0.0246134
0.0245092
0.0244108
0.0243194
0.0242358
0.0241612
0.0240972
0.0240457
0.0240085
0.0239871
0.0239811
0.0239877
0.024003
0.0240229
0.024044
0.0240645
0.0240847
0.0241061
0.0241302
0.0241581
0.0241902
0.0242259
0.0242634
0.0242993
0.024329
0.0243468
0.0243467
0.024324
0.0242773
0.0242087
0.0241248
0.0240355
0.0239531
0.023889
0.0238521
0.0238469
0.0238727
0.0239246
0.0239955
0.0240777
0.0241639
0.0242477
0.0243251
0.0243955
0.0244602
0.0245215
0.0245825
0.0246462
0.0247137
0.0247846
0.0248568
0.0249277
0.0249937
0.0250513
0.0250987
0.0251346
0.0251579
0.0251691
0.0251728
0.0251742
0.0251748
0.0251718
0.0251643
0.0251564
0.0251525
0.0251525
0.0251527
0.0251507
0.0251454
0.0251369
0.0251274
0.0251226
0.0251259
0.0251303
0.0251216
0.0250953
0.0250671
0.0250571
0.0250621
0.0250535
0.0250088
0.0249409
0.0248859
0.0248598
0.0248393
0.0247929
0.0247218
0.0246613
0.0246376
0.0246315
0.0245924
0.0244953
0.0243803
0.0243265
0.024376
0.0244723
0.0244777
0.024286
0.0239463
0.0236586
0.0235844
0.0236064
0.0232935
0.0222071
0.0203317
0.0182152
0.016687
0.0164326
0.0176825
0.0199676
0.0220041
0.0221781
0.0196818
0.015215
0.0103591
0.00636422
0.00362605
0.00196028
0.00102153
0.000518098
0.000257124
0.000125226
5.99421e-05
2.82254e-05
1.30835e-05
5.97498e-06
2.69152e-06
1.19805e-06
5.28288e-07
2.3163e-07
1.01441e-07
4.45866e-08
1.97838e-08
8.89606e-09
4.03865e-09
1.84316e-09
8.56148e-10
3.92613e-10
1.83145e-10
1.03616e-10
6.69739e-11
5.40312e-11
3.95842e-11
2.55512e-11
1.68859e-11
2.41794e-11
1.16771e-11
2.26193e-12
6.5831e-12
4.06511e-12
3.97466e-12
4.3851e-12
4.76794e-12
2.20062e-13
1.15853e-12
7.77191e-13
1.17674e-12
3.01685e-12
6.30915e-13
7.01117e-13
4.49311e-13
4.57738e-13
1.00453e-12
1.27828e-12
1.99445e-13
6.17988e-13
4.97023e-13
6.8731e-13
6.95226e-13
4.04867e-13
1.23491e-12
6.3606e-13
4.6386e-13
6.53995e-13
2.98002e-13
2.23346e-13
2.68981e-13
4.21418e-13
2.05921e-13
2.50848e-13
3.19259e-13
4.98844e-14
1.99427e-13
1.17156e-13
7.78811e-14
8.04866e-14
1.25679e-14
4.82853e-14
6.60708e-15
4.18037e-15
1.59136e-14
9.59228e-15
5.08082e-15
8.08863e-15
8.52434e-15
7.47095e-15
7.39837e-15
7.79279e-15
7.3665e-15
7.22812e-15
7.52355e-15
7.05745e-15
7.33619e-15
7.30775e-15
7.45931e-15
7.17262e-15
7.07891e-15
7.11006e-15
7.28605e-15
7.17514e-15
6.65104e-15
6.64981e-15
6.8999e-15
6.92509e-15
7.06137e-15
6.78065e-15
6.89469e-15
6.50913e-15
6.98865e-15
6.78577e-15
6.25832e-15
5.97465e-15
5.74421e-15
5.93361e-15
6.08186e-15
6.08186e-15
0.04
0.0236297
0.024139
0.0251678
0.025864
0.0257135
0.0253016
0.024651
0.0250307
0.0254395
0.0249649
0.0243898
0.024634
0.0249235
0.0247165
0.0245892
0.0248497
0.0250726
0.0250897
0.0251794
0.0253761
0.0255036
0.0255731
0.025701
0.0258421
0.0259096
0.0259835
0.0260537
0.0261582
0.0261614
0.0262688
0.0262474
0.0263432
0.0262223
0.0262959
0.0261184
0.026156
0.0259388
0.0259721
0.0257662
0.0257933
0.0256369
0.0256898
0.0256023
0.0256763
0.0256536
0.0257331
0.0257391
0.0258069
0.0258292
0.0258888
0.0259284
0.0259929
0.0260491
0.0261215
0.0261923
0.0262699
0.0263459
0.026423
0.0264948
0.0265669
0.0266448
0.026731
0.026825
0.0269263
0.0270282
0.0271248
0.0272193
0.0273161
0.0274153
0.0275178
0.0276217
0.0277198
0.0278114
0.0279039
0.0280008
0.0281042
0.0282182
0.0283402
0.028459
0.028573
0.0286866
0.0287983
0.0289068
0.0290194
0.0291361
0.0292492
0.0293588
0.0294754
0.0296012
0.0297337
0.0298715
0.0300072
0.0301189
0.0301874
0.0302039
0.0301657
0.0300747
0.0299461
0.0297993
0.029648
0.0295033
0.0293764
0.0292671
0.0291716
0.0290906
0.0290206
0.0289515
0.0288839
0.0288188
0.0287487
0.0286725
0.0285964
0.0285161
0.0284284
0.0283401
0.0282516
0.0281569
0.0280611
0.027968
0.0278724
0.0277741
0.0276791
0.0275852
0.0274886
0.0273931
0.027301
0.0272089
0.0271168
0.0270288
0.0269451
0.0268636
0.0267857
0.0267141
0.0266477
0.0265848
0.0265266
0.0264741
0.0264256
0.0263798
0.0263378
0.0263
0.0262642
0.0262292
0.0261963
0.0261651
0.0261334
0.0261018
0.0260733
0.0260476
0.0260238
0.026003
0.0259847
0.0259649
0.02594
0.02591
0.0258739
0.0258309
0.0257842
0.0257385
0.0256953
0.0256552
0.0256183
0.025582
0.0255403
0.0254881
0.0254229
0.0253429
0.0252485
0.0251432
0.0250316
0.0249165
0.0248002
0.0246852
0.0245732
0.0244659
0.0243654
0.0242737
0.024192
0.0241201
0.0240586
0.0240079
0.0239691
0.0239431
0.0239305
0.0239308
0.0239422
0.0239625
0.0239902
0.0240246
0.0240655
0.0241127
0.0241652
0.0242207
0.0242762
0.0243283
0.0243743
0.0244113
0.0244367
0.0244478
0.0244411
0.024414
0.0243655
0.0242976
0.0242159
0.0241294
0.0240492
0.0239863
0.0239491
0.0239427
0.0239666
0.0240161
0.0240831
0.0241592
0.0242352
0.0243035
0.0243594
0.024403
0.0244375
0.0244674
0.0244981
0.0245346
0.02458
0.0246352
0.0246993
0.0247706
0.0248458
0.0249197
0.024988
0.0250465
0.0250917
0.0251222
0.0251411
0.0251543
0.0251648
0.0251704
0.0251682
0.0251607
0.0251539
0.0251516
0.0251525
0.0251531
0.0251495
0.0251404
0.0251289
0.0251221
0.025124
0.0251279
0.0251198
0.0250952
0.0250689
0.02506
0.0250646
0.0250543
0.0250063
0.0249337
0.0248757
0.0248532
0.0248433
0.0248057
0.0247305
0.0246507
0.0246041
0.0245858
0.0245506
0.024468
0.0243707
0.0243353
0.0244016
0.0245005
0.024476
0.0242153
0.0237841
0.0234164
0.0233121
0.0233846
0.0232108
0.0223145
0.0205993
0.0185376
0.0169407
0.0165399
0.0176418
0.0198483
0.0219071
0.0221768
0.0197813
0.0153656
0.0105038
0.00647282
0.00369557
0.0020003
0.0010429
0.000528826
0.000262192
0.000127447
6.08066e-05
2.84849e-05
1.30986e-05
5.90865e-06
2.61147e-06
1.12852e-06
4.74986e-07
1.93255e-07
7.48752e-08
2.67098e-08
8.12823e-09
2.37937e-09
2.18296e-09
2.15607e-09
1.80511e-09
1.38178e-09
1.02915e-09
7.38469e-10
5.1244e-10
3.69384e-10
2.63417e-10
1.7783e-10
1.17492e-10
8.12336e-11
5.79099e-11
3.74978e-11
2.72503e-11
1.59507e-11
6.30047e-12
8.73927e-12
6.69083e-12
1.69267e-12
2.55543e-12
1.43011e-12
1.79302e-12
4.95561e-13
5.52718e-13
1.00142e-12
1.20247e-12
3.05949e-13
8.99183e-13
4.28624e-13
2.75823e-13
1.78206e-13
5.12284e-13
9.04446e-13
1.33991e-13
9.4195e-13
4.7527e-13
3.32836e-13
3.90102e-13
1.6199e-13
2.08828e-13
1.47911e-13
3.3761e-13
1.61461e-13
2.3459e-13
2.31594e-13
5.80721e-14
1.80341e-13
7.21553e-14
6.76591e-14
7.58418e-14
2.59177e-14
2.80538e-14
1.64149e-14
1.93512e-14
3.41826e-15
6.93552e-15
9.77196e-15
7.50162e-15
6.79452e-15
7.45802e-15
7.65672e-15
7.43505e-15
7.44669e-15
7.5257e-15
7.17482e-15
7.23077e-15
7.16091e-15
7.34968e-15
7.09433e-15
7.37423e-15
7.02698e-15
7.09678e-15
7.30859e-15
7.38165e-15
6.93518e-15
6.77625e-15
6.61058e-15
6.92784e-15
6.87728e-15
6.82178e-15
6.89177e-15
6.71691e-15
6.47926e-15
6.73189e-15
6.37731e-15
6.6005e-15
6.01795e-15
6.24561e-15
6.11854e-15
6.1831e-15
6.1831e-15
0.04
0.0237685
0.0244214
0.0247225
0.0248853
0.0249204
0.025104
0.025558
0.0258662
0.0252752
0.0250548
0.0255146
0.0256414
0.0251397
0.0250067
0.0253238
0.0254089
0.025262
0.0253526
0.0255889
0.0256716
0.0257068
0.0258587
0.0260102
0.0260698
0.026126
0.0262391
0.0262915
0.0263536
0.0263765
0.0264962
0.0264543
0.0265377
0.0264363
0.0265153
0.0263288
0.0263807
0.0261749
0.0262128
0.0259976
0.0260363
0.0258718
0.0259202
0.0258205
0.0258955
0.0258596
0.0259349
0.0259348
0.0260017
0.0260188
0.0260795
0.0261189
0.0261847
0.0262419
0.0263151
0.0263835
0.0264594
0.0265336
0.0266074
0.0266769
0.0267494
0.0268261
0.0269101
0.0270035
0.0271021
0.0271955
0.0272822
0.0273665
0.0274518
0.0275438
0.0276455
0.0277486
0.0278445
0.0279337
0.028019
0.0281064
0.0282083
0.0283274
0.0284534
0.0285784
0.0286998
0.0288104
0.028912
0.0290177
0.0291348
0.0292569
0.0293814
0.0295088
0.0296344
0.0297535
0.0298726
0.0299945
0.0301104
0.0302052
0.030269
0.0302899
0.0302598
0.0301797
0.0300623
0.0299228
0.0297755
0.0296305
0.029499
0.0293854
0.0292856
0.0291964
0.02912
0.0290484
0.0289741
0.0289019
0.0288309
0.028751
0.0286666
0.0285848
0.0284972
0.0284013
0.0283083
0.028216
0.0281166
0.0280166
0.0279218
0.0278243
0.0277236
0.0276269
0.0275325
0.0274348
0.0273376
0.0272445
0.0271521
0.027059
0.0269698
0.0268856
0.0268042
0.0267258
0.0266537
0.0265878
0.0265254
0.0264673
0.0264159
0.0263693
0.0263247
0.0262836
0.0262471
0.0262126
0.0261784
0.0261469
0.0261187
0.0260916
0.0260659
0.0260443
0.0260258
0.0260072
0.0259876
0.0259662
0.0259386
0.0259021
0.025859
0.0258119
0.0257618
0.0257127
0.0256685
0.0256287
0.0255894
0.0255476
0.0254993
0.0254387
0.0253631
0.0252739
0.0251738
0.0250654
0.024953
0.0248402
0.0247284
0.0246179
0.0245104
0.0244083
0.0243137
0.0242288
0.0241549
0.0240917
0.0240372
0.02399
0.0239502
0.0239187
0.0238968
0.0238868
0.0238902
0.0239075
0.023939
0.023985
0.0240451
0.024117
0.0241971
0.02428
0.024359
0.0244282
0.0244833
0.0245223
0.0245449
0.0245518
0.0245433
0.0245193
0.0244797
0.0244255
0.0243596
0.0242879
0.0242186
0.0241605
0.0241213
0.0241061
0.0241162
0.0241485
0.0241965
0.0242526
0.0243084
0.0243561
0.024391
0.0244127
0.0244241
0.0244299
0.0244357
0.0244481
0.0244721
0.0245101
0.0245629
0.0246294
0.0247066
0.0247888
0.0248705
0.0249469
0.0250129
0.0250644
0.0251013
0.0251279
0.0251481
0.0251611
0.0251645
0.0251599
0.0251536
0.0251508
0.0251513
0.0251511
0.0251459
0.025135
0.0251229
0.0251165
0.0251186
0.0251217
0.0251129
0.0250889
0.0250642
0.0250559
0.0250604
0.025051
0.0250049
0.0249326
0.0248723
0.0248485
0.0248438
0.0248164
0.0247468
0.0246597
0.0245958
0.0245624
0.0245246
0.0244526
0.0243756
0.0243684
0.0244628
0.0245691
0.0245069
0.024159
0.0236189
0.0231672
0.0230428
0.0231763
0.0231353
0.0224054
0.0208322
0.0188398
0.0172283
0.0167517
0.0177485
0.0198506
0.0218377
0.0220916
0.0197283
0.0153569
0.0105229
0.00649914
0.00371796
0.00201605
0.00105297
0.00053495
0.000265822
0.000129575
6.20532e-05
2.92202e-05
1.35375e-05
6.17465e-06
2.77527e-06
1.23092e-06
5.39916e-07
2.34868e-07
1.01713e-07
4.40784e-08
1.91849e-08
8.39482e-09
3.72277e-09
1.67918e-09
7.69282e-10
3.88166e-10
2.23231e-10
1.58657e-10
1.17842e-10
7.95807e-11
5.74951e-11
5.16215e-11
4.3177e-11
1.82097e-11
1.37871e-11
1.09793e-11
4.80741e-12
1.0889e-11
1.54103e-12
5.04374e-12
2.74702e-12
1.5173e-12
1.32665e-12
1.3378e-12
2.54393e-12
2.50289e-12
6.99717e-13
1.07087e-12
6.13481e-13
6.42013e-13
1.05117e-12
9.79264e-13
1.8945e-13
4.1949e-13
4.47026e-13
1.00703e-12
9.52923e-13
6.30918e-13
1.31835e-12
4.58275e-13
4.12864e-13
4.8609e-13
3.58176e-13
2.17478e-13
3.01962e-13
5.16775e-13
1.57549e-13
3.54827e-13
3.16553e-13
5.45426e-14
2.46334e-13
7.78511e-14
8.80853e-14
9.10522e-14
2.20628e-14
3.50122e-14
1.62996e-14
2.09748e-14
1.12719e-15
4.77021e-15
1.03803e-14
7.47222e-15
6.84981e-15
7.50632e-15
7.5483e-15
7.32797e-15
7.21175e-15
7.32831e-15