# vtk DataFile Version 3.0
LBM output step 1820
ASCII
DATASET STRUCTURED_POINTS
DIMENSIONS 400 100 1
ORIGIN 0 0 0
SPACING 1 1 1
POINT_DATA 40000
SCALARS velocity_magnitude double 1
LOOKUP_TABLE default
0
0
0
0
0
0
0
0
0
0
0
0
0
0
0
0
0
0
0
0
0
0
0
0
0
0
0
0
0
0
0
0
0
0
0
0
0
0
0
0
0
0
0
0
0
0
0
0
0
0
0
0
0
0
0
0
0
0
0
0
0
0
0
0
0
0
0
0
0
0
0
0
0
0
0
0
0
0
0
0
0
0
0
0
0
0
0
0
0
0
0
0
0
0
0
0
0
0
0
0
0
0
0
0
0
0
0
0
0
0
0
0
0
0
0
0
0
0
0
0
0
0
0
0
0
0
0
0
0
0
0
0
0
0
0
0
0
0
0
0
0
0
0
0
0
0
0
0
0
0
0
0
0
0
0
0
0
0
0
0
0
0
0
0
0
0
0
0
0
0
0
0
0
0
0
0
0
0
0
0
0
0
0
0
0
0
0
0
0
0
0
0
0
0
0
0
0
0
0
0
0
0
0
0
0
0
0
0
0
0
0
0
0
0
0
0
0
0
0
0
0
0
0
0
0
0
0
0
0
0
0
0
0
0
0
0
0
0
0
0
0
0
0
0
0
0
0
0
0
0
0
0
0
0
0
0
0
0
0
0
0
0
0
0
0
0
0
0
0
0
0
0
0
0
0
0
0
0
0
0
0
0
0
0
0
0
0
0
0
0
0
0
0
0
0
0
0
0
0
0
0
0
0
0
0
0
0
0
0
0
0
0
0
0
0
0
0
0
0
0
0
0
0
0
0
0
0
0
0
0
0
0
0
0
0
0
0
0
0
0
0
0
0
0
0
0
0
0
0
0
0
0
0
0
0
0
0
0
0
0
0
0
0
0
0
0
0
0
0
0
0
0
0
0
0
0
0
0
0
0
0
0
0
0
0
0
0
0
0
0
0
0
0
0
0
0
0
0
0
0
0.04
0.0178948
0.0117112
0.0143065
0.0175386
0.0175428
0.0141431
0.0128155
0.0126304
0.0126543
0.0122438
0.0121336
0.0117881
0.0115396
0.0113617
0.0113309
0.0111466
0.0110043
0.0108854
0.010807
0.0106711
0.0105811
0.01049
0.0104029
0.0102958
0.0102206
0.0101361
0.0100516
0.00996217
0.00988901
0.00980545
0.00972413
0.009643
0.009569
0.00948813
0.00941217
0.00933791
0.00926755
0.00919507
0.00912859
0.00906382
0.00900201
0.00894082
0.00888445
0.00882898
0.00877584
0.00872385
0.0086749
0.00862642
0.00857991
0.00853453
0.0084913
0.00844888
0.00840835
0.00836912
0.00833192
0.00829576
0.00826135
0.0082284
0.00819709
0.0081667
0.00813787
0.00811037
0.00808397
0.00805864
0.00803496
0.00801255
0.00799142
0.00797226
0.00795497
0.00793934
0.00792576
0.0079148
0.00790524
0.00789765
0.00789213
0.00788851
0.00788505
0.0078835
0.00788286
0.00788276
0.00788171
0.00788253
0.0078826
0.00788252
0.00788093
0.00788124
0.0078792
0.00787711
0.00787277
0.00787004
0.00786313
0.00785626
0.00784546
0.00783549
0.00781908
0.00780269
0.00778004
0.00775755
0.00772656
0.00769613
0.00765725
0.00761893
0.00757095
0.00752506
0.00746916
0.00741585
0.00735254
0.00729363
0.00722409
0.00716041
0.00708655
0.00701997
0.00694275
0.00687477
0.00679603
0.0067275
0.00664796
0.00658017
0.00650063
0.00643367
0.00635504
0.00629002
0.00621269
0.00615002
0.00607558
0.00601616
0.0059448
0.00588947
0.00582271
0.00577133
0.00570904
0.00566254
0.00560521
0.00556233
0.00550987
0.00547113
0.00542263
0.00538649
0.00534225
0.00530868
0.00526734
0.00523589
0.00519843
0.00516906
0.00513486
0.00510846
0.00507861
0.00505504
0.00502954
0.00501003
0.00498941
0.00497372
0.00495823
0.00494715
0.00493643
0.00492924
0.00492287
0.00491897
0.00491534
0.00491323
0.00491113
0.00490946
0.00490729
0.00490513
0.00490241
0.00489932
0.00489583
0.00489222
0.00488842
0.00488459
0.00488086
0.00487728
0.00487377
0.00487032
0.00486691
0.00486341
0.00485976
0.00485598
0.00485213
0.00484827
0.00484448
0.00484086
0.00483742
0.00483413
0.00483089
0.00482759
0.00482408
0.0048202
0.00481585
0.00481097
0.00480555
0.00479964
0.00479335
0.0047868
0.00478015
0.00477362
0.00476742
0.0047618
0.00475698
0.00475311
0.00475016
0.00474795
0.00474615
0.00474436
0.00474223
0.00473957
0.0047364
0.00473287
0.0047292
0.00472552
0.00472182
0.00471791
0.00471354
0.00470847
0.00470258
0.00469594
0.00468871
0.00468106
0.00467307
0.00466465
0.00465567
0.00464611
0.00463624
0.00462681
0.00461912
0.00461479
0.0046156
0.00462302
0.00463791
0.00466025
0.00468908
0.00472262
0.00475854
0.00479433
0.00482774
0.00485709
0.00488145
0.00490077
0.00491576
0.00492775
0.00493842
0.00494959
0.00496296
0.00497996
0.00500159
0.00502841
0.00506048
0.00509745
0.00513858
0.00518286
0.0052291
0.00527601
0.00532235
0.00536697
0.00540888
0.00544731
0.00548173
0.00551186
0.00553765
0.00555923
0.00557695
0.00559124
0.00560266
0.0056118
0.00561925
0.0056256
0.00563137
0.005637
0.00564283
0.00564911
0.00565597
0.00566343
0.00567143
0.0056798
0.00568834
0.00569678
0.00570485
0.00571228
0.00571884
0.00572439
0.00572882
0.00573217
0.00573455
0.00573614
0.00573721
0.00573806
0.005739
0.00574034
0.00574236
0.00574527
0.00574924
0.00575435
0.00576062
0.00576797
0.00577628
0.00578533
0.00579487
0.00580466
0.00581443
0.005824
0.00583322
0.00584207
0.00585059
0.00585886
0.00586703
0.00587522
0.00588346
0.00589174
0.00589989
0.00590762
0.00591456
0.00592022
0.00592407
0.00592562
0.00592443
0.00592015
0.00591263
0.00590186
0.00588806
0.0058716
0.005853
0.0058329
0.00581198
0.00579098
0.00577061
0.00575155
0.00573444
0.00571986
0.00570828
0.00570009
0.00569554
0.00569475
0.00569769
0.00570418
0.00571394
0.00572663
0.00574185
0.00575923
0.00577841
0.00579899
0.00582054
0.00584249
0.00586414
0.0058846
0.00590289
0.00591803
0.00592916
0.00593574
0.0059376
0.00593502
0.00592868
0.00591953
0.00590864
0.00589705
0.00588563
0.00587503
0.00586566
0.00585767
0.00585101
0.00584537
0.00584028
0.00583507
0.005829
0.00582136
0.00581156
0.0057993
0.00578463
0.00576795
0.00574998
0.00573167
0.00571405
0.0056982
0.00568506
0.00567546
0.00567005
0.00566927
0.00567338
0.00568246
0.00569635
0.00571471
0.00573696
0.00576237
0.00579004
0.00581905
0.00584855
0.00587778
0.00590614
0.00593329
0.00595899
0.00598316
0.00600575
0.006027
0.00604688
0.00606521
0.00608248
0.00609947
0.00611415
0.00612559
0.00612559
0.04
0.0279951
0.0306056
0.028152
0.0203531
0.0183014
0.0210787
0.0219372
0.0201105
0.018962
0.0187529
0.0184774
0.0180085
0.0177979
0.0175243
0.0171613
0.0168926
0.0167715
0.0165659
0.0163379
0.0161714
0.0160419
0.0158674
0.0157135
0.0155904
0.0154651
0.0153228
0.015205
0.0150969
0.0149812
0.0148644
0.014764
0.0146635
0.01456
0.0144624
0.0143746
0.0142859
0.0142005
0.0141234
0.0140526
0.0139839
0.0139216
0.0138666
0.0138162
0.0137691
0.0137279
0.0136913
0.0136577
0.013627
0.0136003
0.0135764
0.0135545
0.0135351
0.0135189
0.013505
0.0134931
0.0134842
0.0134784
0.0134749
0.0134737
0.013476
0.0134809
0.013488
0.0134981
0.0135116
0.013527
0.0135454
0.0135675
0.0135926
0.0136199
0.0136517
0.0136872
0.0137249
0.0137657
0.0138115
0.0138589
0.0139078
0.0139599
0.0140154
0.0140691
0.0141242
0.0141811
0.0142385
0.0142916
0.0143465
0.0144006
0.0144528
0.0144994
0.0145477
0.0145916
0.0146323
0.0146656
0.0146997
0.0147248
0.0147461
0.0147576
0.0147679
0.0147648
0.0147587
0.0147392
0.0147175
0.0146796
0.0146405
0.0145844
0.0145281
0.0144543
0.0143817
0.0142904
0.0142038
0.0140979
0.0139977
0.0138792
0.0137707
0.0136413
0.0135246
0.0133894
0.0132686
0.0131264
0.013004
0.0128606
0.0127365
0.0125912
0.0124708
0.0123268
0.0122082
0.0120683
0.0119565
0.0118207
0.0117153
0.0115878
0.0114907
0.0113703
0.0112823
0.011172
0.0110925
0.0109911
0.010921
0.0108297
0.010767
0.0106847
0.0106302
0.0105568
0.0105084
0.010444
0.0104027
0.0103468
0.0103115
0.0102648
0.0102361
0.0101978
0.0101754
0.0101461
0.0101302
0.010109
0.0100993
0.010086
0.0100817
0.0100747
0.0100747
0.0100725
0.0100748
0.0100752
0.0100785
0.0100799
0.0100827
0.010084
0.0100861
0.0100871
0.0100886
0.0100896
0.0100911
0.0100924
0.0100941
0.0100959
0.0100978
0.0100997
0.0101015
0.0101031
0.0101046
0.0101058
0.0101068
0.0101078
0.0101087
0.0101095
0.0101102
0.0101107
0.0101109
0.0101107
0.01011
0.0101086
0.0101067
0.0101042
0.0101014
0.0100982
0.0100949
0.0100917
0.0100887
0.0100862
0.0100844
0.0100834
0.0100835
0.0100844
0.0100861
0.0100882
0.0100903
0.0100921
0.0100934
0.0100943
0.0100949
0.0100955
0.0100962
0.0100971
0.0100979
0.0100985
0.0100988
0.0100985
0.0100979
0.0100972
0.0100965
0.010096
0.0100956
0.0100951
0.0100947
0.0100946
0.0100956
0.0100989
0.0101061
0.0101189
0.0101387
0.0101662
0.0102011
0.0102423
0.0102881
0.0103359
0.0103832
0.0104279
0.0104684
0.0105037
0.0105341
0.0105603
0.0105838
0.0106063
0.0106298
0.0106558
0.0106858
0.0107207
0.010761
0.0108065
0.0108568
0.0109111
0.0109681
0.0110265
0.0110851
0.0111424
0.0111973
0.0112488
0.0112961
0.0113388
0.0113766
0.0114094
0.0114376
0.0114615
0.0114816
0.0114985
0.0115128
0.0115253
0.0115365
0.0115469
0.0115571
0.0115673
0.0115778
0.0115887
0.0116001
0.0116119
0.0116238
0.0116357
0.0116473
0.0116582
0.0116684
0.0116775
0.0116854
0.0116921
0.0116976
0.0117021
0.0117058
0.0117091
0.0117122
0.0117155
0.0117194
0.011724
0.0117296
0.0117363
0.0117441
0.011753
0.011763
0.0117737
0.0117849
0.0117964
0.011808
0.0118192
0.0118301
0.0118403
0.01185
0.0118592
0.0118679
0.0118765
0.0118848
0.0118931
0.0119013
0.0119093
0.0119166
0.011923
0.0119279
0.0119308
0.0119313
0.0119288
0.0119232
0.0119141
0.0119017
0.0118861
0.0118677
0.0118471
0.0118248
0.0118017
0.0117785
0.0117559
0.0117347
0.0117157
0.0116994
0.0116864
0.0116772
0.0116721
0.0116713
0.0116746
0.0116819
0.0116928
0.0117069
0.0117236
0.0117426
0.0117632
0.011785
0.0118075
0.0118302
0.0118522
0.0118727
0.0118907
0.0119053
0.0119157
0.0119214
0.0119221
0.0119182
0.0119103
0.0118995
0.0118868
0.0118732
0.0118598
0.0118472
0.0118357
0.0118258
0.0118173
0.0118101
0.0118036
0.0117974
0.0117907
0.011783
0.0117737
0.0117626
0.0117497
0.0117356
0.0117209
0.0117065
0.0116936
0.0116831
0.011676
0.0116731
0.0116749
0.0116817
0.0116938
0.011711
0.0117332
0.0117597
0.0117899
0.011823
0.0118581
0.0118941
0.0119302
0.0119656
0.0119999
0.0120326
0.0120635
0.0120925
0.0121196
0.0121446
0.0121678
0.0121895
0.0122088
0.012225
0.0122388
0.0122507
0.0122507
0.04
0.0281469
0.0268527
0.0243969
0.0255117
0.0275236
0.0266299
0.0246957
0.0245643
0.0249759
0.0243702
0.0235241
0.0231562
0.0229304
0.0224942
0.0221435
0.0218931
0.0216142
0.0213053
0.0210995
0.020905
0.0206807
0.0204681
0.0203096
0.0201397
0.019964
0.019808
0.0196724
0.0195249
0.0193843
0.0192584
0.0191378
0.0190123
0.0188978
0.0187923
0.0186892
0.018589
0.0185006
0.0184188
0.0183418
0.0182726
0.0182137
0.0181607
0.018114
0.0180752
0.0180436
0.0180165
0.0179947
0.0179781
0.0179658
0.0179564
0.0179506
0.0179484
0.0179494
0.0179529
0.0179599
0.0179709
0.0179851
0.0180024
0.018024
0.01805
0.018079
0.0181118
0.0181495
0.0181908
0.0182353
0.0182848
0.0183386
0.0183957
0.0184572
0.0185243
0.0185948
0.0186691
0.0187487
0.0188325
0.0189181
0.0190083
0.019102
0.0191972
0.0192928
0.0193924
0.019492
0.0195905
0.0196883
0.0197884
0.0198844
0.0199782
0.0200696
0.0201609
0.0202442
0.0203248
0.0203996
0.0204714
0.0205315
0.0205879
0.0206336
0.0206743
0.0206993
0.0207197
0.0207249
0.0207241
0.0207041
0.0206807
0.020638
0.0205904
0.0205221
0.0204536
0.0203622
0.0202706
0.0201582
0.0200496
0.0199164
0.0197913
0.0196439
0.0195058
0.0193435
0.0191975
0.0190261
0.0188721
0.0186938
0.0185381
0.0183548
0.018198
0.0180148
0.017861
0.0176784
0.0175306
0.0173535
0.0172132
0.0170427
0.0169133
0.0167522
0.0166336
0.0164833
0.0163778
0.016239
0.0161454
0.016019
0.0159379
0.0158232
0.0157531
0.0156508
0.0155913
0.0155005
0.0154508
0.0153722
0.0153317
0.0152646
0.0152329
0.0151778
0.015154
0.0151101
0.0150941
0.0150611
0.015052
0.0150288
0.0150258
0.0150112
0.0150126
0.0150045
0.0150088
0.0150052
0.0150105
0.0150095
0.015015
0.0150154
0.0150203
0.0150218
0.0150264
0.0150287
0.0150334
0.0150367
0.0150417
0.0150458
0.0150509
0.0150555
0.0150607
0.0150653
0.0150702
0.0150747
0.0150794
0.0150839
0.0150886
0.0150933
0.0150979
0.0151025
0.0151068
0.0151108
0.0151144
0.0151174
0.01512
0.0151221
0.0151239
0.0151254
0.0151268
0.0151283
0.0151299
0.0151319
0.0151344
0.0151377
0.0151418
0.0151468
0.0151525
0.0151586
0.0151648
0.0151709
0.0151767
0.0151823
0.0151878
0.0151933
0.0151989
0.0152047
0.0152105
0.015216
0.015221
0.0152256
0.0152298
0.0152338
0.0152379
0.015242
0.0152462
0.0152503
0.0152543
0.0152586
0.0152637
0.015271
0.0152819
0.015298
0.0153207
0.0153508
0.0153879
0.0154313
0.015479
0.0155287
0.015578
0.0156248
0.0156675
0.0157051
0.0157378
0.0157663
0.0157919
0.0158165
0.0158417
0.0158692
0.0159004
0.0159363
0.0159773
0.0160235
0.0160743
0.0161289
0.0161864
0.0162453
0.0163045
0.0163625
0.0164183
0.0164708
0.0165192
0.016563
0.016602
0.0166361
0.0166656
0.0166907
0.016712
0.0167302
0.0167458
0.0167595
0.0167719
0.0167836
0.016795
0.0168064
0.0168181
0.0168302
0.0168427
0.0168556
0.0168686
0.0168816
0.0168941
0.0169061
0.0169172
0.0169272
0.0169359
0.0169434
0.0169497
0.016955
0.0169594
0.0169634
0.0169673
0.0169713
0.0169759
0.0169813
0.0169877
0.0169951
0.0170036
0.0170132
0.0170237
0.0170349
0.0170467
0.0170586
0.0170706
0.0170822
0.0170935
0.0171042
0.0171144
0.0171241
0.0171334
0.0171424
0.0171512
0.0171598
0.0171682
0.0171763
0.0171836
0.01719
0.017195
0.0171981
0.017199
0.0171971
0.0171924
0.0171845
0.0171735
0.0171596
0.0171431
0.0171243
0.017104
0.0170827
0.0170611
0.01704
0.0170201
0.0170022
0.0169869
0.0169747
0.0169662
0.0169616
0.016961
0.0169644
0.0169716
0.0169822
0.0169958
0.0170118
0.0170297
0.0170492
0.0170698
0.017091
0.0171125
0.0171335
0.0171533
0.017171
0.0171857
0.0171966
0.0172032
0.0172052
0.017203
0.017197
0.0171882
0.0171774
0.0171658
0.0171541
0.0171429
0.0171327
0.0171236
0.0171158
0.0171091
0.0171033
0.0170978
0.0170921
0.0170857
0.017078
0.0170689
0.0170583
0.0170466
0.0170344
0.0170226
0.0170119
0.0170033
0.0169977
0.0169958
0.016998
0.0170048
0.0170163
0.0170326
0.0170534
0.0170784
0.0171068
0.017138
0.0171711
0.0172051
0.0172392
0.0172727
0.0173051
0.017336
0.0173651
0.0173923
0.0174179
0.0174416
0.0174633
0.0174835
0.0175022
0.0175185
0.0175328
0.0175452
0.0175452
0.04
0.0298349
0.0311814
0.0315922
0.0317331
0.0293652
0.0277212
0.0286459
0.0295146
0.0283948
0.027291
0.0273101
0.0273139
0.0267244
0.0262057
0.026025
0.0257501
0.0253734
0.0251064
0.0249174
0.0246453
0.0243934
0.0242108
0.0240311
0.0238124
0.023633
0.0234808
0.0233178
0.0231476
0.0230081
0.0228732
0.0227322
0.0225984
0.0224833
0.0223667
0.0222528
0.0221505
0.0220597
0.0219701
0.0218897
0.0218209
0.0217606
0.0217056
0.0216614
0.0216264
0.0215982
0.0215764
0.021563
0.0215553
0.0215527
0.0215548
0.021562
0.0215731
0.0215878
0.021606
0.0216286
0.0216551
0.0216851
0.0217192
0.0217585
0.0218017
0.0218488
0.0219011
0.0219584
0.0220193
0.022085
0.0221562
0.0222314
0.0223111
0.0223966
0.0224869
0.0225812
0.0226814
0.0227865
0.0228952
0.0230083
0.0231269
0.0232474
0.0233703
0.0234971
0.0236265
0.0237543
0.0238841
0.0240157
0.0241462
0.0242727
0.0244007
0.0245269
0.0246489
0.0247647
0.0248808
0.0249898
0.0250922
0.0251858
0.0252767
0.0253548
0.0254251
0.025483
0.0255346
0.0255687
0.0255955
0.0256052
0.0256068
0.0255888
0.0255645
0.0255187
0.0254676
0.0253954
0.025319
0.0252197
0.025121
0.0249987
0.0248776
0.0247346
0.0245979
0.0244356
0.0242837
0.0241087
0.0239462
0.0237576
0.023589
0.0233936
0.0232197
0.023019
0.0228467
0.0226443
0.0224742
0.0222745
0.0221119
0.0219164
0.021763
0.0215757
0.0214345
0.0212562
0.0211283
0.0209616
0.0208481
0.0206927
0.0205935
0.020451
0.0203656
0.0202351
0.020163
0.0200457
0.0199858
0.0198809
0.0198331
0.0197415
0.019704
0.0196254
0.0195983
0.0195325
0.0195139
0.0194609
0.0194504
0.019409
0.0194048
0.0193741
0.0193749
0.0193527
0.0193563
0.019341
0.019346
0.0193352
0.0193405
0.0193334
0.0193384
0.0193339
0.0193389
0.019337
0.0193419
0.0193421
0.0193474
0.0193493
0.0193547
0.0193579
0.0193635
0.0193674
0.0193728
0.0193773
0.0193827
0.0193876
0.0193932
0.0193986
0.0194043
0.0194098
0.0194154
0.0194205
0.0194254
0.0194299
0.0194341
0.0194378
0.0194414
0.0194448
0.0194481
0.0194514
0.0194549
0.0194585
0.0194626
0.0194672
0.0194724
0.0194784
0.0194849
0.0194918
0.0194989
0.0195059
0.0195128
0.0195196
0.0195264
0.0195332
0.0195402
0.0195473
0.0195542
0.0195607
0.0195667
0.0195723
0.0195773
0.0195822
0.0195871
0.019592
0.019597
0.0196019
0.0196068
0.0196119
0.019618
0.019626
0.0196376
0.0196542
0.0196771
0.019707
0.0197438
0.0197866
0.0198336
0.0198826
0.0199313
0.0199776
0.0200199
0.0200573
0.0200899
0.0201184
0.0201442
0.0201688
0.0201942
0.0202219
0.0202533
0.0202893
0.0203306
0.020377
0.0204282
0.0204833
0.0205414
0.0206011
0.0206611
0.0207201
0.0207769
0.0208306
0.0208802
0.0209253
0.0209655
0.0210007
0.0210313
0.0210574
0.0210797
0.0210988
0.0211152
0.0211298
0.021143
0.0211555
0.0211677
0.0211799
0.0211925
0.0212054
0.0212187
0.0212322
0.0212459
0.0212595
0.0212727
0.0212852
0.0212968
0.0213072
0.0213164
0.0213242
0.0213308
0.0213365
0.0213413
0.0213458
0.0213503
0.0213551
0.0213605
0.0213667
0.021374
0.0213824
0.0213919
0.0214025
0.021414
0.0214261
0.0214387
0.0214514
0.0214641
0.0214765
0.0214884
0.0214998
0.0215107
0.021521
0.0215309
0.0215404
0.0215496
0.0215585
0.0215671
0.021575
0.0215822
0.0215883
0.0215929
0.0215958
0.0215965
0.0215946
0.0215901
0.0215826
0.0215723
0.0215591
0.0215435
0.0215256
0.0215061
0.0214855
0.0214645
0.0214438
0.0214243
0.0214066
0.0213914
0.0213794
0.0213711
0.0213667
0.0213663
0.02137
0.0213774
0.0213882
0.0214018
0.0214178
0.0214356
0.0214547
0.0214748
0.0214955
0.0215164
0.021537
0.0215566
0.0215744
0.0215895
0.0216011
0.0216087
0.021612
0.0216113
0.0216069
0.0215996
0.0215904
0.0215799
0.021569
0.0215582
0.0215479
0.0215384
0.0215298
0.0215221
0.0215153
0.0215089
0.0215026
0.0214959
0.0214885
0.0214801
0.0214707
0.0214606
0.0214502
0.0214402
0.0214314
0.0214245
0.0214202
0.0214192
0.021422
0.021429
0.0214404
0.0214562
0.0214762
0.0215001
0.0215274
0.0215573
0.021589
0.0216217
0.0216547
0.0216871
0.0217184
0.0217484
0.0217769
0.0218037
0.0218287
0.0218523
0.0218745
0.0218947
0.021913
0.0219298
0.0219453
0.0219586
0.0219586
0.04
0.0310721
0.0321618
0.0308002
0.0301696
0.0305355
0.0318016
0.0313084
0.0298635
0.0296783
0.0304316
0.0302072
0.0293501
0.0290369
0.0290873
0.0288009
0.0283541
0.028129
0.0279548
0.0276732
0.0274123
0.0272447
0.0270434
0.0268162
0.0266339
0.0264832
0.0263007
0.026126
0.025981
0.0258409
0.0256864
0.0255494
0.0254266
0.0253022
0.0251776
0.0250702
0.024969
0.0248697
0.0247784
0.0247011
0.0246285
0.0245627
0.0245079
0.0244639
0.0244257
0.0243969
0.0243778
0.0243668
0.024362
0.0243651
0.0243748
0.02439
0.0244101
0.0244354
0.0244652
0.0244995
0.0245376
0.0245801
0.0246276
0.0246794
0.024735
0.024796
0.0248621
0.0249321
0.0250067
0.0250872
0.0251721
0.0252612
0.0253562
0.0254564
0.025561
0.0256712
0.0257872
0.0259073
0.0260325
0.0261633
0.0262976
0.0264349
0.0265775
0.0267228
0.0268688
0.027017
0.0271691
0.0273197
0.0274693
0.0276203
0.0277722
0.0279187
0.0280635
0.0282071
0.0283478
0.0284798
0.0286087
0.0287317
0.0288481
0.0289528
0.0290516
0.0291394
0.0292182
0.0292814
0.0293367
0.0293767
0.029406
0.0294166
0.0294197
0.0294036
0.029377
0.0293311
0.0292798
0.0292057
0.0291258
0.0290269
0.028925
0.0287994
0.0286759
0.0285317
0.0283891
0.0282242
0.0280689
0.0278894
0.0277204
0.027529
0.0273541
0.0271528
0.0269729
0.0267676
0.026588
0.0263798
0.0262038
0.025998
0.025829
0.025627
0.0254685
0.0252741
0.0251277
0.0249417
0.0248099
0.0246343
0.024517
0.0243518
0.0242503
0.0240965
0.0240093
0.0238672
0.0237952
0.023665
0.0236062
0.0234889
0.0234434
0.0233386
0.0233046
0.0232134
0.0231901
0.0231116
0.0230973
0.0230321
0.0230251
0.0229715
0.0229701
0.0229273
0.0229291
0.0228949
0.0228986
0.0228717
0.0228756
0.0228545
0.0228586
0.0228427
0.0228463
0.022835
0.0228389
0.0228314
0.0228353
0.0228311
0.0228352
0.0228333
0.0228374
0.0228375
0.0228416
0.0228429
0.0228471
0.0228497
0.0228542
0.0228577
0.0228626
0.0228667
0.0228715
0.0228756
0.0228801
0.022884
0.0228879
0.0228915
0.0228952
0.0228988
0.0229024
0.022906
0.0229096
0.0229134
0.0229174
0.0229218
0.0229267
0.022932
0.0229379
0.0229441
0.0229505
0.0229571
0.0229637
0.0229704
0.0229772
0.0229843
0.0229916
0.0229989
0.0230061
0.0230129
0.0230191
0.0230249
0.0230302
0.0230354
0.0230406
0.023046
0.0230514
0.0230569
0.0230624
0.0230681
0.0230747
0.0230834
0.0230954
0.0231123
0.0231351
0.0231647
0.0232009
0.0232427
0.0232886
0.0233365
0.023384
0.0234292
0.0234706
0.0235074
0.0235396
0.0235678
0.0235935
0.0236182
0.0236437
0.0236715
0.0237031
0.0237394
0.0237808
0.0238275
0.0238789
0.0239344
0.0239928
0.024053
0.0241135
0.0241733
0.0242309
0.0242854
0.024336
0.024382
0.0244232
0.0244594
0.0244908
0.0245179
0.024541
0.0245609
0.0245782
0.0245935
0.0246076
0.0246209
0.0246338
0.0246468
0.0246601
0.0246737
0.0246876
0.0247018
0.024716
0.02473
0.0247436
0.0247564
0.0247682
0.0247787
0.024788
0.024796
0.0248027
0.0248085
0.0248136
0.0248184
0.0248232
0.0248285
0.0248345
0.0248414
0.0248493
0.0248584
0.0248686
0.0248798
0.0248917
0.0249042
0.0249171
0.0249299
0.0249427
0.024955
0.0249669
0.0249782
0.0249889
0.024999
0.0250087
0.0250179
0.0250267
0.025035
0.0250427
0.0250497
0.0250559
0.0250608
0.0250644
0.0250661
0.0250659
0.0250633
0.0250583
0.0250506
0.0250403
0.0250274
0.025012
0.0249945
0.0249754
0.0249551
0.0249343
0.0249137
0.0248941
0.0248762
0.0248608
0.0248485
0.0248398
0.024835
0.0248343
0.0248375
0.0248444
0.0248545
0.0248673
0.0248823
0.024899
0.0249168
0.0249355
0.0249547
0.0249741
0.0249933
0.0250117
0.0250286
0.0250433
0.0250549
0.0250628
0.0250669
0.0250671
0.0250639
0.0250578
0.0250497
0.0250401
0.0250298
0.0250192
0.0250087
0.0249986
0.0249891
0.0249804
0.0249725
0.0249652
0.0249583
0.0249516
0.0249446
0.0249373
0.0249296
0.0249217
0.0249138
0.0249065
0.0249004
0.0248959
0.0248938
0.0248945
0.0248986
0.0249063
0.0249179
0.0249334
0.0249528
0.0249757
0.0250016
0.02503
0.02506
0.025091
0.0251221
0.0251528
0.0251827
0.0252113
0.0252385
0.0252645
0.0252889
0.0253118
0.0253336
0.0253541
0.025373
0.0253905
0.0254058
0.025419
0.025419
0.04
0.0290563
0.0295336
0.0308031
0.0315929
0.0315072
0.0312875
0.0308049
0.0312474
0.0317478
0.0313115
0.0306319
0.0307634
0.0309973
0.0306491
0.0301884
0.0301049
0.0300514
0.0297696
0.0295048
0.0293779
0.0292231
0.0289998
0.0288301
0.0286973
0.0285305
0.0283554
0.0282227
0.0280908
0.0279412
0.0278028
0.0276871
0.0275641
0.0274393
0.0273289
0.0272288
0.0271248
0.0270286
0.0269444
0.0268659
0.0267899
0.0267251
0.0266696
0.0266202
0.0265782
0.0265476
0.0265251
0.0265105
0.0265048
0.0265083
0.026519
0.026537
0.0265616
0.0265925
0.026629
0.0266707
0.0267167
0.0267682
0.0268243
0.0268842
0.026949
0.0270193
0.0270934
0.0271716
0.0272556
0.0273444
0.0274369
0.0275347
0.0276383
0.0277461
0.027859
0.0279779
0.0281017
0.0282302
0.0283647
0.0285036
0.0286463
0.0287943
0.0289465
0.0291001
0.0292572
0.0294184
0.0295803
0.0297412
0.0299057
0.0300714
0.0302343
0.030395
0.0305581
0.0307181
0.0308724
0.0310229
0.0311727
0.0313143
0.0314479
0.0315753
0.0316973
0.0318062
0.0319063
0.0319964
0.0320761
0.0321399
0.0321949
0.0322344
0.0322615
0.0322723
0.0322734
0.032255
0.032227
0.0321818
0.0321269
0.0320525
0.0319734
0.0318743
0.0317697
0.0316475
0.0315239
0.031379
0.0312365
0.0310753
0.0309177
0.0307392
0.0305711
0.0303815
0.0302042
0.0300053
0.029825
0.0296205
0.0294392
0.0292328
0.0290557
0.0288502
0.0286798
0.0284782
0.0283186
0.0281228
0.0279751
0.027787
0.027654
0.0274739
0.0273555
0.027185
0.0270825
0.0269209
0.026834
0.0266833
0.0266118
0.0264712
0.0264147
0.0262862
0.0262429
0.026126
0.0260955
0.0259915
0.0259712
0.0258799
0.0258688
0.0257899
0.0257849
0.0257178
0.0257175
0.0256607
0.0256624
0.0256152
0.0256179
0.0255789
0.0255817
0.0255505
0.0255532
0.0255286
0.0255312
0.0255128
0.0255152
0.0255016
0.0255039
0.0254945
0.0254965
0.0254902
0.0254923
0.0254886
0.0254908
0.0254891
0.0254917
0.0254919
0.0254949
0.0254963
0.0254995
0.0255016
0.0255047
0.0255072
0.0255103
0.025513
0.0255162
0.0255193
0.0255227
0.0255259
0.0255293
0.0255325
0.025536
0.0255396
0.0255435
0.0255478
0.0255524
0.0255574
0.0255627
0.0255683
0.0255742
0.0255804
0.025587
0.025594
0.0256013
0.0256086
0.0256158
0.0256226
0.0256289
0.0256347
0.0256402
0.0256455
0.0256509
0.0256565
0.0256622
0.025668
0.0256739
0.0256801
0.0256872
0.0256962
0.0257084
0.0257251
0.0257474
0.025776
0.0258109
0.0258512
0.0258953
0.0259413
0.0259871
0.0260308
0.0260708
0.0261064
0.0261377
0.0261653
0.0261905
0.0262147
0.0262398
0.0262673
0.0262985
0.0263344
0.0263754
0.0264216
0.0264726
0.0265278
0.0265859
0.026646
0.0267066
0.0267665
0.0268244
0.0268794
0.0269305
0.0269771
0.027019
0.0270558
0.0270879
0.0271156
0.0271393
0.0271597
0.0271775
0.0271933
0.0272078
0.0272215
0.0272349
0.0272483
0.0272619
0.0272758
0.0272899
0.0273042
0.0273185
0.0273324
0.0273458
0.0273584
0.0273699
0.0273802
0.0273892
0.0273968
0.0274033
0.0274089
0.0274139
0.0274187
0.0274236
0.0274291
0.0274353
0.0274425
0.0274507
0.0274601
0.0274705
0.0274817
0.0274937
0.027506
0.0275186
0.0275311
0.0275433
0.0275551
0.0275664
0.027577
0.0275871
0.0275965
0.0276054
0.0276138
0.0276215
0.0276287
0.0276351
0.0276407
0.0276453
0.0276486
0.0276505
0.0276508
0.0276491
0.0276454
0.0276395
0.0276312
0.0276204
0.0276073
0.027592
0.0275745
0.0275554
0.0275351
0.0275143
0.0274935
0.0274735
0.0274552
0.0274393
0.0274263
0.0274169
0.0274113
0.0274095
0.0274117
0.0274173
0.0274261
0.0274374
0.0274507
0.0274655
0.0274814
0.027498
0.0275151
0.0275325
0.0275499
0.0275668
0.0275824
0.0275962
0.0276073
0.0276152
0.0276195
0.0276203
0.0276179
0.0276126
0.0276053
0.0275963
0.0275862
0.0275755
0.0275643
0.0275532
0.0275424
0.0275321
0.0275226
0.0275139
0.0275059
0.0274986
0.0274917
0.0274852
0.0274789
0.0274728
0.0274673
0.0274625
0.0274588
0.0274565
0.0274562
0.0274582
0.027463
0.0274708
0.0274819
0.0274965
0.0275143
0.0275353
0.0275591
0.0275849
0.0276123
0.0276405
0.0276689
0.027697
0.0277244
0.0277509
0.0277761
0.0278002
0.0278232
0.0278451
0.0278657
0.0278853
0.0279037
0.0279209
0.0279366
0.0279503
0.0279503
0.04
0.0289269
0.0296188
0.0302139
0.03045
0.0305695
0.0308109
0.0313391
0.0317656
0.0312544
0.0310255
0.0315517
0.0317939
0.0312942
0.0310431
0.0312603
0.031264
0.0309175
0.0307358
0.030745
0.0306242
0.0304022
0.030283
0.0302056
0.0300535
0.0299002
0.0298016
0.0296934
0.0295518
0.0294342
0.0293383
0.029226
0.0291069
0.0290103
0.0289182
0.0288174
0.0287232
0.028644
0.0285641
0.0284845
0.0284154
0.028355
0.0282953
0.0282425
0.0282001
0.0281647
0.0281348
0.0281154
0.0281059
0.0281043
0.0281111
0.0281277
0.028152
0.0281837
0.0282222
0.028267
0.0283176
0.0283739
0.0284343
0.0284996
0.0285705
0.0286453
0.0287236
0.0288077
0.0288964
0.0289883
0.0290852
0.0291879
0.0292945
0.0294054
0.0295226
0.0296448
0.0297715
0.029904
0.0300417
0.0301835
0.030331
0.0304831
0.0306377
0.0307963
0.0309602
0.0311249
0.0312905
0.0314602
0.0316326
0.0318022
0.0319723
0.0321455
0.0323172
0.0324834
0.0326496
0.032815
0.0329746
0.0331269
0.0332767
0.0334203
0.0335554
0.0336808
0.0337995
0.033908
0.0340059
0.0340903
0.0341654
0.0342273
0.034276
0.0343092
0.0343329
0.03434
0.0343334
0.0343123
0.034282
0.0342321
0.0341728
0.0340999
0.0340175
0.0339163
0.0338121
0.0336917
0.0335653
0.0334229
0.0332818
0.0331222
0.0329642
0.0327905
0.0326229
0.0324363
0.0322601
0.0320659
0.0318862
0.0316858
0.0315058
0.031304
0.0311279
0.0309262
0.0307571
0.0305592
0.0304002
0.0302063
0.0300596
0.0298722
0.0297391
0.0295576
0.0294401
0.0292663
0.0291641
0.0289976
0.0289125
0.0287547
0.0286847
0.0285362
0.0284823
0.0283437
0.0283033
0.0281761
0.0281488
0.0280328
0.0280157
0.0279123
0.0279035
0.0278115
0.0278083
0.0277283
0.0277283
0.0276589
0.0276607
0.0276021
0.0276042
0.0275552
0.0275576
0.0275178
0.0275196
0.027488
0.0274894
0.0274647
0.0274655
0.0274467
0.0274471
0.0274329
0.0274329
0.0274227
0.0274228
0.0274157
0.0274161
0.0274118
0.0274125
0.0274103
0.0274114
0.0274106
0.0274121
0.0274124
0.0274142
0.0274155
0.0274178
0.0274199
0.0274225
0.0274249
0.0274276
0.02743
0.0274324
0.0274349
0.0274375
0.0274402
0.0274433
0.0274466
0.0274503
0.0274544
0.0274591
0.0274643
0.0274702
0.0274766
0.0274834
0.0274903
0.0274972
0.0275036
0.0275096
0.0275151
0.0275203
0.0275255
0.0275307
0.0275362
0.0275418
0.0275476
0.0275536
0.0275598
0.027567
0.027576
0.027588
0.0276042
0.0276257
0.0276531
0.0276863
0.0277246
0.0277664
0.0278101
0.0278535
0.0278948
0.0279327
0.0279666
0.0279962
0.0280225
0.0280465
0.0280698
0.028094
0.0281207
0.0281512
0.0281863
0.0282266
0.0282721
0.0283224
0.0283768
0.0284344
0.0284939
0.0285541
0.0286137
0.0286715
0.0287264
0.0287776
0.0288244
0.0288664
0.0289035
0.0289359
0.0289637
0.0289876
0.0290082
0.0290262
0.0290422
0.0290568
0.0290707
0.0290842
0.0290977
0.0291112
0.029125
0.0291389
0.0291529
0.0291668
0.0291802
0.029193
0.029205
0.0292158
0.0292254
0.0292336
0.0292407
0.0292466
0.0292517
0.0292564
0.0292609
0.0292658
0.0292712
0.0292774
0.0292846
0.0292929
0.0293023
0.0293125
0.0293236
0.0293351
0.029347
0.0293588
0.0293705
0.0293818
0.0293925
0.0294027
0.0294122
0.0294211
0.0294293
0.0294369
0.0294439
0.0294502
0.0294558
0.0294605
0.0294643
0.0294669
0.0294683
0.0294683
0.0294667
0.0294633
0.0294581
0.0294508
0.0294414
0.0294299
0.0294161
0.0294003
0.0293825
0.029363
0.0293424
0.0293211
0.0292998
0.0292794
0.0292604
0.0292437
0.0292299
0.0292194
0.0292126
0.0292096
0.0292103
0.0292144
0.0292214
0.0292308
0.0292421
0.0292548
0.0292684
0.0292828
0.0292977
0.0293129
0.0293282
0.0293432
0.0293572
0.0293697
0.0293798
0.0293871
0.0293911
0.0293918
0.0293895
0.0293845
0.0293773
0.0293683
0.029358
0.0293467
0.0293346
0.0293221
0.0293096
0.0292975
0.0292861
0.0292756
0.0292661
0.0292578
0.0292505
0.0292442
0.0292388
0.0292343
0.0292307
0.029228
0.0292265
0.0292262
0.0292275
0.0292307
0.029236
0.0292439
0.0292544
0.0292678
0.0292841
0.0293029
0.0293241
0.0293471
0.0293714
0.0293964
0.0294216
0.0294466
0.029471
0.0294948
0.0295177
0.0295397
0.0295608
0.0295812
0.0296007
0.0296195
0.0296373
0.029654
0.0296697
0.0296841
0.0296841
0.04
0.0296433
0.0302093
0.0298846
0.0302596
0.0307229
0.0309005
0.0309435
0.030945
0.0311263
0.0316122
0.031594
0.0312665
0.0313465
0.0317053
0.0316282
0.0313331
0.0313237
0.03145
0.031335
0.0311437
0.0311051
0.0310932
0.0309709
0.0308504
0.0307972
0.0307247
0.0306111
0.0305217
0.030455
0.0303641
0.0302658
0.0301888
0.0301148
0.0300268
0.0299458
0.0298773
0.0298063
0.029732
0.0296677
0.0296089
0.0295485
0.0294916
0.0294435
0.0293987
0.0293573
0.0293242
0.0293002
0.0292824
0.0292737
0.0292754
0.0292862
0.0293057
0.0293346
0.0293712
0.0294154
0.0294667
0.0295238
0.0295859
0.0296543
0.0297271
0.0298034
0.0298849
0.0299715
0.0300609
0.0301544
0.0302538
0.0303571
0.0304639
0.0305765
0.0306946
0.0308166
0.0309442
0.0310774
0.0312151
0.031358
0.0315063
0.0316579
0.0318141
0.0319755
0.0321392
0.0323044
0.0324748
0.0326481
0.0328203
0.0329936
0.0331717
0.0333487
0.0335221
0.0336961
0.0338721
0.0340425
0.0342073
0.0343707
0.0345318