# vtk DataFile Version 3.0
LBM output step 410
ASCII
DATASET STRUCTURED_POINTS
DIMENSIONS 400 100 1
ORIGIN 0 0 0
SPACING 1 1 1
POINT_DATA 40000
SCALARS velocity_magnitude double 1
LOOKUP_TABLE default
0
0
0
0
0
0
0
0
0
0
0
0
0
0
0
0
0
0
0
0
0
0
0
0
0
0
0
0
0
0
0
0
0
0
0
0
0
0
0
0
0
0
0
0
0
0
0
0
0
0
0
0
0
0
0
0
0
0
0
0
0
0
0
0
0
0
0
0
0
0
0
0
0
0
0
0
0
0
0
0
0
0
0
0
0
0
0
0
0
0
0
0
0
0
0
0
0
0
0
0
0
0
0
0
0
0
0
0
0
0
0
0
0
0
0
0
0
0
0
0
0
0
0
0
0
0
0
0
0
0
0
0
0
0
0
0
0
0
0
0
0
0
0
0
0
0
0
0
0
0
0
0
0
0
0
0
0
0
0
0
0
0
0
0
0
0
0
0
0
0
0
0
0
0
0
0
0
0
0
0
0
0
0
0
0
0
0
0
0
0
0
0
0
0
0
0
0
0
0
0
0
0
0
0
0
0
0
0
0
0
0
0
0
0
0
0
0
0
0
0
0
0
0
0
0
0
0
0
0
0
0
0
0
0
0
0
0
0
0
0
0
0
0
0
0
0
0
0
0
0
0
0
0
0
0
0
0
0
0
0
0
0
0
0
0
0
0
0
0
0
0
0
0
0
0
0
0
0
0
0
0
0
0
0
0
0
0
0
0
0
0
0
0
0
0
0
0
0
0
0
0
0
0
0
0
0
0
0
0
0
0
0
0
0
0
0
0
0
0
0
0
0
0
0
0
0
0
0
0
0
0
0
0
0
0
0
0
0
0
0
0
0
0
0
0
0
0
0
0
0
0
0
0
0
0
0
0
0
0
0
0
0
0
0
0
0
0
0
0
0
0
0
0
0
0
0
0
0
0
0
0
0
0
0
0
0
0
0
0
0
0
0
0
0
0
0
0
0
0
0
0.04
0.0149685
0.009769
0.0157783
0.0181752
0.0177759
0.0150916
0.0150461
0.0154046
0.0156666
0.0154662
0.0155987
0.0154027
0.0152343
0.0150613
0.0149827
0.0147279
0.0144936
0.0142809
0.0140742
0.0138449
0.0136395
0.0134999
0.0133166
0.0131724
0.0129723
0.0128022
0.0125371
0.0123258
0.0120875
0.0119334
0.0117781
0.0116939
0.0115826
0.0114661
0.0112999
0.011135
0.0109775
0.0108777
0.0108473
0.0108862
0.0109593
0.0110244
0.0110397
0.0109725
0.0108135
0.0105731
0.0102813
0.00996543
0.00965221
0.00935916
0.00909621
0.00886065
0.00865167
0.00846818
0.00831079
0.00817797
0.00807458
0.00800429
0.00796888
0.00796781
0.00800248
0.00806934
0.00816089
0.008269
0.00838857
0.00851165
0.00863091
0.00874501
0.00885474
0.00895806
0.00905661
0.00915575
0.00925685
0.00935897
0.00946374
0.00957245
0.00968083
0.00978559
0.00988746
0.00998524
0.0100748
0.0101585
0.0102383
0.0103128
0.0103824
0.0104502
0.0105159
0.0105779
0.0106349
0.0106888
0.0107381
0.0107793
0.010813
0.0108417
0.0108618
0.010874
0.0108803
0.0108808
0.0108743
0.0108626
0.0108461
0.0108255
0.0107999
0.0107712
0.0107397
0.0107056
0.0106704
0.0106359
0.0106015
0.0105701
0.0105425
0.0105193
0.0105007
0.0104874
0.0104792
0.0104748
0.0104723
0.0104733
0.0104751
0.0104761
0.0104795
0.0104853
0.0104926
0.0105056
0.0105262
0.0105527
0.0105855
0.010626
0.0106708
0.0107164
0.0107633
0.0108111
0.0108573
0.0109047
0.0109581
0.0110182
0.0110868
0.0111675
0.0112599
0.0113589
0.0114603
0.01156
0.0116504
0.0117231
0.0117755
0.0118076
0.0118164
0.0118044
0.0117796
0.0117467
0.0117089
0.0116745
0.0116495
0.0116347
0.0116314
0.0116418
0.011665
0.0116985
0.0117411
0.0117921
0.0118494
0.0119097
0.0119725
0.0120384
0.0121069
0.0121775
0.0122503
0.0123243
0.012398
0.0124711
0.0125441
0.0126172
0.0126904
0.0127637
0.0128364
0.0129081
0.0129797
0.0130534
0.0131316
0.0132162
0.0133083
0.0134074
0.0135123
0.0136211
0.0137305
0.0138381
0.0139453
0.0140536
0.0141592
0.0142574
0.0143505
0.0144459
0.0145439
0.0146383
0.0147285
0.0148225
0.0149234
0.0150253
0.0151266
0.0152388
0.0153696
0.0155046
0.0156221
0.0157255
0.0158405
0.0159733
0.0160906
0.0161644
0.0162286
0.0163572
0.0165702
0.0167846
0.0168924
0.0168883
0.0168923
0.0170339
0.0173274
0.0176719
0.0179688
0.0182139
0.0184392
0.0185772
0.018434
0.0178494
0.0168974
0.0159041
0.0152419
0.0150663
0.0151855
0.0151698
0.0146868
0.0138633
0.0133626
0.0140544
0.0164283
0.0199942
0.0230849
0.0236533
0.0208422
0.0157448
0.0103822
0.00615723
0.00338638
0.00176905
0.000891577
0.000437378
0.000209828
9.86705e-05
4.55385e-05
2.06451e-05
9.20331e-06
4.04178e-06
1.75324e-06
7.53931e-07
3.23714e-07
1.40286e-07
6.13247e-08
2.70135e-08
1.2777e-08
6.34113e-09
3.06293e-09
1.55159e-09
1.39157e-09
1.07667e-09
3.74843e-10
5.49084e-10
2.09445e-10
1.18277e-10
1.16784e-10
2.61203e-10
1.67327e-10
1.893e-10
3.70823e-10
1.54434e-10
2.2093e-10
2.62947e-10
4.33606e-11
1.31669e-10
7.42832e-11
5.18714e-12
3.31629e-11
2.01734e-11
3.5014e-11
3.64405e-11
1.59631e-11
4.4886e-11
1.91385e-11
1.81893e-11
1.70448e-11
8.60267e-12
1.67904e-11
3.12588e-12
6.67524e-12
1.76504e-12
5.63083e-12
4.24259e-12
6.26978e-13
1.51414e-12
7.30447e-13
1.74261e-12
9.80045e-13
2.50727e-13
2.35137e-13
4.27803e-13
4.03556e-13
2.24019e-13
9.09464e-14
3.40894e-14
4.38113e-14
4.2552e-14
2.40447e-14
1.96242e-14
1.22182e-14
2.30786e-14
5.18835e-14
8.12343e-14
1.01915e-13
1.22824e-13
1.36205e-13
1.39804e-13
1.33713e-13
1.22489e-13
1.07866e-13
9.35753e-14
7.82095e-14
6.369e-14
4.77767e-14
3.56217e-14
2.39878e-14
1.69218e-14
8.55854e-15
6.69513e-15
1.0947e-15
5.19772e-15
2.53657e-15
5.47929e-15
2.96054e-15
4.45065e-15
2.93166e-15
3.71282e-15
2.7873e-15
3.0505e-15
2.56381e-15
2.85415e-15
2.51684e-15
2.58589e-15
2.74671e-15
2.85244e-15
3.10863e-15
3.2924e-15
2.66174e-15
2.334e-15
2.31823e-15
2.24234e-15
2.68546e-15
2.99442e-15
2.59767e-15
2.70681e-15
2.22127e-15
1.89993e-15
2.25193e-15
2.44568e-15
2.5691e-15
2.12058e-15
2.2968e-15
2.0912e-15
1.95441e-15
2.13419e-15
2.00901e-15
1.86454e-15
2.00196e-15
1.7574e-15
1.67199e-15
1.64021e-15
1.32375e-15
1.25675e-15
1.0385e-15
7.83726e-16
4.7044e-16
2.07617e-16
3.22677e-16
3.21463e-16
1.1086e-16
4.17777e-17
1.694e-16
2.22072e-16
2.09579e-16
4.90654e-17
1.59745e-16
5.72196e-17
1.14859e-16
8.77708e-17
3.1225e-17
6.28344e-17
2.02302e-17
1.47196e-17
2.02302e-17
1.96262e-17
1.96262e-17
0.04
0.0232045
0.0240123
0.0216517
0.0153319
0.015667
0.0192282
0.0201445
0.018943
0.0189086
0.0195582
0.0198172
0.0198121
0.020031
0.0200879
0.0199584
0.0198581
0.0198286
0.0196903
0.0194922
0.019394
0.0192803
0.019199
0.019056
0.0190386
0.0188806
0.0188054
0.0185964
0.0185237
0.018324
0.0182834
0.0181765
0.0181973
0.0181202
0.018103
0.0179989
0.0179298
0.0178344
0.0178202
0.0178447
0.0179395
0.01805
0.0181579
0.0182036
0.0181682
0.0180389
0.0178328
0.0175706
0.0172855
0.0170036
0.0167438
0.0165108
0.0163084
0.0161355
0.0159898
0.0158681
0.0157736
0.0157082
0.015673
0.0156694
0.0157014
0.0157659
0.0158591
0.0159775
0.0161164
0.0162676
0.0164258
0.0165877
0.01675
0.0169084
0.017064
0.0172183
0.0173703
0.0175197
0.0176706
0.0178223
0.0179712
0.0181183
0.0182658
0.0184093
0.0185472
0.0186824
0.0188156
0.0189422
0.0190633
0.0191821
0.0192962
0.0194011
0.0194993
0.0195928
0.0196774
0.0197505
0.0198164
0.0198747
0.0199228
0.0199619
0.0199943
0.0200181
0.0200341
0.0200427
0.0200445
0.0200391
0.0200275
0.0200086
0.0199833
0.0199529
0.019918
0.0198769
0.0198341
0.0197898
0.0197424
0.0196962
0.0196542
0.0196122
0.019574
0.0195431
0.0195157
0.0194911
0.0194742
0.0194621
0.0194509
0.0194434
0.0194417
0.0194419
0.0194445
0.019454
0.01947
0.0194903
0.0195171
0.0195518
0.0195921
0.0196354
0.0196833
0.0197359
0.0197915
0.0198508
0.0199175
0.0199918
0.0200724
0.0201594
0.0202522
0.0203448
0.0204308
0.0205077
0.0205706
0.0206124
0.0206322
0.0206334
0.020616
0.0205826
0.0205423
0.0205009
0.0204615
0.02043
0.0204117
0.0204073
0.0204164
0.0204391
0.0204747
0.0205201
0.0205727
0.0206322
0.0206967
0.020764
0.0208338
0.0209061
0.0209801
0.0210547
0.0211298
0.0212054
0.0212808
0.0213555
0.0214295
0.0215029
0.0215747
0.0216446
0.0217141
0.0217845
0.0218564
0.021932
0.0220131
0.0220991
0.0221892
0.0222837
0.0223819
0.0224808
0.0225764
0.022668
0.0227569
0.0228407
0.0229163
0.0229865
0.0230572
0.0231287
0.0231944
0.023253
0.0233114
0.0233743
0.0234377
0.0235001
0.0235703
0.0236535
0.0237349
0.0237938
0.0238335
0.0238807
0.0239447
0.0239963
0.0240059
0.0239963
0.0240295
0.0241266
0.0242227
0.0242293
0.0241417
0.0240602
0.0240917
0.0242413
0.0244129
0.0245172
0.0245529
0.0245575
0.0244798
0.0241398
0.0233733
0.0222379
0.0210543
0.0202092
0.0198639
0.0198051
0.0195799
0.0188644
0.0178205
0.0171248
0.0176043
0.019691
0.0228851
0.0255531
0.0256707
0.0223833
0.0168118
0.0110414
0.00652385
0.00357438
0.00185988
0.000933351
0.000455624
0.000217269
0.000101378
4.62965e-05
2.06826e-05
9.02792e-06
3.84206e-06
1.58865e-06
6.34193e-07
2.41061e-07
8.46156e-08
2.52167e-08
5.23181e-09
3.75656e-09
4.32143e-09
3.10749e-09
3.29501e-09
2.17225e-09
1.30868e-09
1.61669e-09
5.74756e-10
3.14148e-10
3.27768e-10
3.94213e-10
4.59798e-10
8.40115e-11
3.20193e-10
1.51598e-10
1.85148e-10
2.06042e-10
6.7298e-11
1.49804e-10
3.27815e-11
6.54737e-11
1.77185e-11
1.16729e-11
3.85073e-11
2.73185e-11
2.07334e-11
3.36481e-11
2.72432e-12
3.02587e-11
1.80661e-11
9.26074e-12
1.32043e-11
4.71968e-12
1.25889e-11
4.60333e-12
4.22155e-12
2.06506e-12
4.23685e-12
4.25104e-12
1.68302e-12
1.28622e-12
1.12731e-12
1.63836e-12
1.22259e-12
7.00941e-13
4.99336e-13
5.39757e-13
6.18536e-13
6.27915e-13
5.96865e-13
5.44689e-13
4.75908e-13
4.08197e-13
3.53053e-13
3.09962e-13
2.70423e-13
2.26691e-13
1.7615e-13
1.2221e-13
7.7075e-14
5.16108e-14
4.63611e-14
5.3838e-14
6.11401e-14
6.46694e-14
6.43524e-14
6.57788e-14
6.67583e-14
6.91958e-14
6.73167e-14
6.54195e-14
5.96684e-14
5.3967e-14
4.6058e-14
3.89656e-14
3.18945e-14
2.63688e-14
2.05737e-14
1.60666e-14
1.18207e-14
9.11059e-15
6.62033e-15
5.53833e-15
4.43636e-15
4.13899e-15
4.17899e-15
3.86556e-15
3.62761e-15
3.71241e-15
3.79253e-15
3.82549e-15
4.24931e-15
3.68842e-15
3.6893e-15
3.26686e-15
3.22887e-15
3.65356e-15
3.66387e-15
3.60692e-15
3.14687e-15
3.06812e-15
2.40643e-15
2.67334e-15
2.79643e-15
3.11904e-15
2.57795e-15
2.64063e-15
2.47486e-15
2.33364e-15
2.66526e-15
2.4307e-15
2.25169e-15
2.18242e-15
2.27329e-15
1.93262e-15
1.92528e-15
1.38679e-15
1.33619e-15
1.13456e-15
7.94625e-16
5.52547e-16
4.40346e-16
3.99001e-16
2.36839e-16
2.57324e-16
1.70568e-16
2.45376e-16
1.22958e-16
9.46975e-17
7.07631e-17
1.57507e-16
7.75792e-18
1.36548e-16
1.94568e-16
3.92523e-17
4.3472e-17
6.28344e-17
3.53816e-17
2.19427e-17
1.25093e-17
1.25093e-17
0.04
0.0246354
0.0223626
0.0192667
0.0204706
0.0227557
0.0218845
0.0206421
0.0213525
0.0223257
0.0221753
0.0220389
0.0223985
0.0227096
0.0227005
0.0227585
0.022857
0.0228374
0.0227595
0.0227431
0.0227539
0.0226726
0.0226753
0.0226318
0.0226792
0.0225592
0.0225981
0.0224571
0.0224818
0.0223258
0.0223949
0.0223061
0.0223968
0.0223391
0.0224091
0.0223386
0.0223538
0.0223034
0.0223492
0.022389
0.0225107
0.0226292
0.0227559
0.022819
0.0228189
0.0227273
0.0225626
0.0223383
0.0220885
0.021834
0.0215943
0.0213803
0.0211991
0.0210501
0.0209329
0.0208461
0.0207909
0.0207654
0.0207694
0.0208031
0.020865
0.0209509
0.021057
0.0211802
0.0213183
0.0214655
0.0216203
0.0217827
0.0219489
0.0221154
0.0222844
0.0224538
0.0226192
0.0227814
0.022942
0.0230961
0.0232431
0.0233877
0.02353
0.0236669
0.0238035
0.0239428
0.0240804
0.0242152
0.0243499
0.0244813
0.0246049
0.0247192
0.0248258
0.0249221
0.0250055
0.0250787
0.025145
0.0252011
0.0252479
0.0252896
0.0253259
0.0253542
0.0253763
0.0253936
0.025405
0.0254075
0.0254035
0.0253939
0.0253754
0.0253474
0.0253144
0.0252728
0.0252216
0.025165
0.0251031
0.025034
0.0249624
0.0248902
0.024818
0.0247481
0.0246841
0.0246269
0.0245762
0.0245326
0.0244969
0.0244654
0.0244359
0.0244093
0.0243842
0.0243577
0.0243331
0.0243141
0.0243005
0.0242933
0.0242974
0.0243126
0.0243354
0.0243658
0.0244031
0.0244432
0.0244843
0.0245272
0.0245717
0.0246162
0.0246601
0.0247045
0.0247468
0.0247817
0.0248078
0.0248236
0.0248226
0.024803
0.0247686
0.0247201
0.0246583
0.0245912
0.0245246
0.0244607
0.0244045
0.0243604
0.0243293
0.0243109
0.0243041
0.0243078
0.0243197
0.024337
0.02436
0.0243875
0.0244171
0.0244482
0.0244802
0.0245125
0.0245445
0.0245764
0.0246088
0.0246406
0.0246705
0.0246983
0.0247239
0.024747
0.0247687
0.0247914
0.024816
0.0248423
0.0248719
0.024905
0.0249399
0.0249766
0.0250165
0.0250578
0.0250963
0.0251288
0.0251557
0.0251775
0.0251923
0.0252011
0.0252085
0.025215
0.0252153
0.0252082
0.0252005
0.0251973
0.0251948
0.0251889
0.0251862
0.025193
0.0251979
0.0251817
0.0251456
0.0251148
0.0251027
0.0250865
0.0250348
0.0249553
0.0248942
0.0248783
0.0248737
0.0248194
0.0247053
0.0245972
0.0245706
0.0246224
0.024669
0.0246383
0.0245434
0.0244384
0.0242971
0.0239585
0.0232448
0.0221706
0.0210195
0.0201693
0.0197853
0.0196531
0.0193352
0.0185558
0.0175016
0.0167961
0.0171818
0.0190752
0.0220779
0.0247096
0.0250087
0.022022
0.0167071
0.0110692
0.00658636
0.00362888
0.00189734
0.000956614
0.000469387
0.000225219
0.000105923
4.88874e-05
2.21607e-05
9.87769e-06
4.3363e-06
1.87955e-06
8.07795e-07
3.46577e-07
1.49172e-07
6.45773e-08
2.95282e-08
1.40389e-08
5.49077e-09
3.05906e-09
1.97843e-09
5.75241e-10
7.22397e-10
4.20789e-10
4.33403e-10
1.05082e-11
2.55307e-10
3.35758e-10
1.2875e-10
4.43474e-10
3.39222e-11
1.69785e-10
7.68883e-11
1.4377e-10
9.5189e-11
1.0588e-10
1.1249e-10
1.24049e-11
3.79179e-11
4.11319e-11
2.02557e-11
3.25503e-11
2.4526e-11
2.5299e-11
2.83296e-11
9.42275e-12
2.1908e-11
9.45025e-12
1.14748e-11
1.06024e-11
4.09583e-12
6.45182e-12
1.29218e-12
4.82361e-12
2.43998e-12
2.3863e-12
7.96901e-13
1.30184e-12
1.39864e-12
8.8625e-13
6.07764e-13
1.71539e-13
2.7637e-13
3.0773e-13
3.63699e-13
4.20036e-13
4.4367e-13
4.25269e-13
3.77474e-13
3.28351e-13
2.90306e-13
2.5921e-13
2.22089e-13
1.71996e-13
1.10332e-13
4.37329e-14
1.21716e-14
4.01266e-14
4.51949e-14
3.5968e-14
2.59837e-14
1.904e-14
1.16078e-14
6.93325e-15
8.77736e-15
2.00445e-14
2.75956e-14
3.2908e-14
3.4084e-14
3.39078e-14
3.09938e-14
2.82127e-14
2.41029e-14
2.11056e-14
1.70497e-14
1.40755e-14
1.04821e-14
8.33534e-15
6.48953e-15
5.44781e-15
4.86833e-15
4.35187e-15
3.77071e-15
4.03024e-15
3.83547e-15
3.71565e-15
3.67504e-15
3.81533e-15
4.08235e-15
3.48955e-15
3.62547e-15
3.36174e-15
3.46734e-15
3.48366e-15
3.44886e-15
3.44011e-15
2.9188e-15
2.99866e-15
2.72061e-15
2.80598e-15
2.98942e-15
2.78312e-15
2.51192e-15
2.4531e-15
2.25782e-15
2.409e-15
2.3319e-15
2.30371e-15
2.23909e-15
2.17007e-15
2.12455e-15
1.78378e-15
1.8074e-15
1.5957e-15
1.378e-15
1.03052e-15
5.62457e-16
5.31233e-16
3.51255e-16
4.5996e-16
3.30054e-16
3.29141e-17
3.43458e-17
6.17717e-17
2.5327e-16
8.16611e-17
9.54571e-17
1.26099e-16
1.00853e-16
1.52063e-16
6.13808e-17
5.30723e-17
4.62882e-17
3.10317e-17
7.75792e-18
6.28344e-17
9.81308e-18
9.81308e-18
0.04
0.0265526
0.0279345
0.0276511
0.027043
0.0244027
0.0230737
0.0243153
0.0250698
0.0241342
0.0235797
0.0241651
0.0244753
0.0243102
0.0243265
0.0246173
0.0246878
0.0246496
0.0247233
0.0248176
0.0248213
0.0248004
0.0248913
0.0248785
0.0249233
0.0248554
0.0249605
0.0248432
0.0249245
0.0248057
0.0249246
0.0248109
0.0249332
0.0248636
0.0249711
0.0249005
0.0249723
0.0249311
0.0249985
0.0250182
0.0251304
0.0252122
0.0253163
0.0253598
0.0253587
0.0252679
0.0251119
0.0248957
0.0246495
0.0243907
0.0241446
0.0239248
0.0237397
0.0235921
0.0234834
0.0234126
0.023377
0.0233732
0.0233984
0.0234499
0.0235219
0.0236093
0.0237097
0.0238214
0.0239412
0.0240693
0.0242079
0.024356
0.0245111
0.0246738
0.0248423
0.0250106
0.0251768
0.0253395
0.0254933
0.0256366
0.0257733
0.0259034
0.0260268
0.026149
0.0262743
0.0264003
0.0265265
0.0266553
0.0267841
0.0269053
0.0270183
0.0271246
0.0272202
0.0273005
0.0273707
0.0274341
0.0274875
0.0275315
0.0275724
0.0276084
0.0276375
0.0276631
0.027685
0.0276998
0.0277095
0.0277132
0.0277091
0.0276977
0.0276797
0.0276509
0.0276131
0.0275678
0.0275111
0.0274425
0.0273672
0.0272817
0.0271858
0.0270866
0.0269852
0.0268802
0.0267794
0.0266869
0.0266002
0.0265212
0.026454
0.0263945
0.0263374
0.0262829
0.0262309
0.026177
0.0261212
0.0260684
0.026022
0.0259833
0.0259564
0.025945
0.0259478
0.0259611
0.0259825
0.0260083
0.0260331
0.0260531
0.0260684
0.0260796
0.0260857
0.026088
0.0260902
0.0260912
0.0260867
0.026077
0.0260602
0.0260289
0.0259814
0.025921
0.0258474
0.0257617
0.0256709
0.0255812
0.025495
0.025416
0.0253487
0.0252946
0.0252516
0.0252192
0.0251973
0.0251829
0.025174
0.0251703
0.0251702
0.0251717
0.0251739
0.0251771
0.0251815
0.0251864
0.0251913
0.0251956
0.0251986
0.0251996
0.025199
0.0251975
0.0251953
0.0251939
0.0251948
0.025197
0.0252013
0.0252093
0.0252198
0.0252312
0.0252447
0.0252602
0.0252742
0.0252826
0.0252855
0.0252848
0.0252799
0.02527
0.0252567
0.0252416
0.0252222
0.0251982
0.0251759
0.0251602
0.0251458
0.0251268
0.0251076
0.0250952
0.0250827
0.025054
0.0250084
0.0249673
0.0249459
0.0249272
0.0248801
0.0248021
0.0247265
0.0246801
0.0246482
0.0245957
0.0245219
0.0244748
0.0244938
0.0245449
0.0245353
0.0244078
0.0242096
0.024042
0.0239199
0.0236863
0.02312
0.0221699
0.0210796
0.0202406
0.0198639
0.0197662
0.0194997
0.0187499
0.0176729
0.0168857
0.0171447
0.0189121
0.021872
0.0246008
0.0250915
0.022269
0.0170058
0.0113196
0.00675321
0.00372428
0.0019465
0.000980013
0.000479707
0.000229331
0.000107279
4.91291e-05
2.2015e-05
9.64283e-06
4.122e-06
1.71354e-06
6.88694e-07
2.65867e-07
9.60716e-08
3.01355e-08
6.20424e-09
2.69903e-09
3.81977e-09
4.34658e-09
2.56053e-09
2.26384e-09
2.31591e-09
3.21807e-10
3.34162e-10
9.2936e-10
7.25173e-10
3.02e-10
3.78625e-10
1.16579e-10
1.87291e-10
4.81087e-11
2.59105e-10
7.73233e-11
1.73483e-10
1.46157e-10
6.24653e-11
7.26445e-11
1.36668e-11
2.08585e-11
2.0443e-11
3.84915e-12
2.60604e-11
1.78834e-11
1.60062e-11
2.73399e-11
5.13531e-12
1.69432e-11
9.45998e-12
8.65565e-12
1.01319e-11
2.54353e-12
6.29701e-12
9.61724e-13
3.64316e-12
1.62072e-12
1.54197e-12
1.30469e-12
5.30885e-13
6.35066e-13
1.52169e-13
2.86709e-13
1.00844e-13
7.42176e-14
9.05534e-14
1.81842e-13
2.5743e-13
2.65758e-13
2.36269e-13
2.03375e-13
1.80816e-13
1.63416e-13
1.39385e-13
9.75981e-14
3.63678e-14
3.37021e-14
8.98418e-14
1.18007e-13
1.20402e-13
1.08034e-13
9.40937e-14
8.21442e-14
6.99488e-14
5.49856e-14
3.66658e-14
1.98044e-14
6.56284e-15
7.5868e-15
1.47042e-14
1.77228e-14
1.9776e-14
1.92418e-14
1.84166e-14
1.66021e-14
1.42819e-14
1.22012e-14
9.97836e-15
7.87377e-15
6.12382e-15
5.14699e-15
4.69258e-15
4.12671e-15
3.99847e-15
4.18597e-15
3.97301e-15
3.67761e-15
3.51608e-15
3.4996e-15
3.55555e-15
3.40734e-15
3.69696e-15
3.70664e-15
3.45065e-15
3.6221e-15
3.296e-15
3.05526e-15
3.16128e-15
3.40057e-15
2.73734e-15
2.737e-15
2.6718e-15
2.44011e-15
2.55044e-15
2.50253e-15
2.2504e-15
2.53677e-15
2.87226e-15
2.23465e-15
2.33602e-15
2.13748e-15
2.03177e-15
1.72435e-15
1.70807e-15
1.5119e-15
1.35259e-15
1.17379e-15
9.26368e-16
5.71364e-16
4.66573e-16
5.23921e-16
2.22072e-16
2.16111e-16
1.70674e-16
9.34177e-17
4.235e-17
8.16611e-17
8.89289e-17
3.48675e-17
1.20285e-16
1.51468e-16
3.53816e-17
1.249e-16
9.25764e-17
3.10317e-17
4.52361e-17
3.10317e-17
2.45327e-17
2.45327e-17
0.04
0.0271428
0.0283723
0.0271434
0.0264078
0.0264405
0.0273977
0.0267483
0.0253805
0.0253718
0.0260766
0.0258518
0.0252272
0.0253349
0.0256696
0.0256542
0.0255611
0.0257232
0.0258656
0.0258728
0.0259249
0.0260234
0.0260904
0.0260447
0.0261286
0.026098
0.0261835
0.0260804
0.026221
0.0261083
0.0262275
0.0260954
0.0262298
0.0261149
0.0262262
0.0261492
0.0262492
0.0261946
0.0262717
0.0262642
0.026344
0.0263676
0.0264318
0.0264358
0.0264126
0.0263122
0.0261617
0.025949
0.0257039
0.0254437
0.0251951
0.0249706
0.024784
0.0246419
0.0245446
0.0244902
0.024474
0.024491
0.0245345
0.0245978
0.024674
0.0247588
0.0248499
0.0249456
0.0250453
0.0251533
0.0252714
0.0253985
0.025536
0.0256846
0.0258387
0.0259941
0.0261494
0.0262993
0.0264392
0.0265714
0.0266962
0.0268118
0.0269243
0.0270382
0.027151
0.0272632
0.0273788
0.0274933
0.0276019
0.0277043
0.0278007
0.0278863
0.0279603
0.0280262
0.0280863
0.0281377
0.0281815
0.0282222
0.0282608
0.0282929
0.0283204
0.0283454
0.0283656
0.0283784
0.028386
0.0283888
0.0283841
0.0283696
0.0283493
0.0283223
0.0282836
0.0282354
0.0281801
0.0281118
0.0280316
0.0279428
0.0278433
0.0277325
0.027616
0.0274959
0.0273727
0.027251
0.0271372
0.0270313
0.0269325
0.0268441
0.0267667
0.0266942
0.0266236
0.0265571
0.0264928
0.0264277
0.0263671
0.0263166
0.0262768
0.0262496
0.026239
0.0262433
0.0262565
0.0262743
0.0262929
0.0263068
0.0263114
0.0263074
0.026298
0.0262835
0.0262656
0.02625
0.0262369
0.026221
0.0262018
0.0261779
0.0261412
0.0260885
0.0260228
0.0259441
0.0258531
0.0257566
0.0256609
0.0255695
0.0254856
0.0254126
0.0253524
0.0253031
0.0252637
0.0252347
0.0252138
0.0251988
0.0251883
0.0251803
0.0251741
0.0251689
0.0251653
0.0251642
0.0251644
0.0251638
0.0251616
0.0251583
0.0251539
0.0251492
0.0251461
0.0251454
0.0251462
0.025148
0.0251511
0.0251563
0.0251633
0.0251711
0.0251816
0.0251955
0.0252084
0.0252155
0.0252162
0.0252133
0.0252081
0.0252001
0.0251897
0.0251775
0.0251618
0.025142
0.0251234
0.0251116
0.0251027
0.0250896
0.0250739
0.0250625
0.025051
0.0250238
0.0249785
0.0249362
0.0249177
0.0249122
0.0248842
0.024816
0.0247275
0.0246526
0.0246041
0.0245712
0.0245504
0.0245597
0.0246026
0.024627
0.0245479
0.0243323
0.0240534
0.0238317
0.0236941
0.0234938
0.0230132
0.0221891
0.0212377
0.0205135
0.0201931
0.02008
0.0197486
0.0189348
0.017831
0.0170377
0.0172549
0.0189057
0.0217057
0.0243274
0.0248374
0.0221333
0.0169923
0.0113698
0.00681348
0.00377136
0.00197742
0.00099869
0.000490538
0.000235503
0.000110776
5.11153e-05
2.31561e-05
1.03065e-05
4.5133e-06
1.94985e-06
8.32962e-07
3.53098e-07
1.5069e-07
6.60101e-08
2.83213e-08
1.19184e-08
6.41061e-09
2.84338e-09
1.05099e-09
1.39501e-09
3.65059e-10
6.91779e-10
3.33815e-10
5.0081e-10
3.74049e-10
5.03328e-10
2.7524e-10
2.41993e-10
2.07782e-11
1.19395e-10
4.89527e-11
2.63816e-10
4.96286e-11
1.69141e-10
7.32844e-11
3.53348e-11
2.29949e-11
1.69286e-11
2.65165e-11
2.80814e-11
1.10425e-11
3.7913e-11
2.14306e-11
1.78142e-11
2.59633e-11
1.3018e-12
1.89029e-11
8.66549e-12
9.41512e-12
7.02686e-12
4.21186e-12
5.56221e-12
1.77133e-12
3.44809e-12
7.41459e-13
1.70191e-12
7.87434e-13
5.71892e-13
5.50657e-13
4.87073e-14
2.66913e-13
8.99296e-14
7.8784e-14
1.83171e-13
2.32534e-13
2.25755e-13
2.0053e-13
1.80098e-13
1.70049e-13
1.62802e-13
1.43549e-13
1.01354e-13
3.62543e-14
3.3939e-14
8.7232e-14
1.13985e-13
1.17003e-13
1.06679e-13
9.62278e-14
8.5476e-14
7.48334e-14
5.82712e-14
4.02764e-14
2.19033e-14
8.92966e-15
5.46137e-15
1.25341e-14
1.63952e-14
1.8571e-14
1.83483e-14
1.73687e-14
1.61965e-14
1.41153e-14
1.18357e-14
9.58726e-15
7.79853e-15
6.09714e-15
5.3746e-15
4.38007e-15
4.31652e-15
4.00132e-15
4.17801e-15
4.33739e-15
4.02869e-15
3.85494e-15
3.69235e-15
3.49014e-15
3.53683e-15
3.76223e-15
3.4911e-15
3.37235e-15
3.59009e-15
3.29908e-15
3.12943e-15
3.35514e-15
3.41028e-15
2.78992e-15
2.73641e-15
2.6439e-15
2.61371e-15
2.38509e-15
2.37688e-15
2.23088e-15
2.34137e-15
2.62087e-15
2.29634e-15
2.05392e-15
1.85295e-15
2.15016e-15
2.16495e-15
1.95019e-15
1.4332e-15
1.39493e-15
1.14377e-15
8.35273e-16
5.19838e-16
4.04975e-16
3.86902e-16
3.34167e-16
2.01407e-16
3.48675e-17
1.86835e-17
1.14123e-16
1.4979e-16
5.25023e-17
1.05348e-16
6.33115e-17
1.73472e-17
2.32738e-17
2.5258e-17
2.42861e-17
8.91992e-17
2.70972e-17
4.71896e-17
1.73472e-17
1.73472e-17
0.04
0.0251213
0.025758
0.0270443
0.0278867
0.0277851
0.0274083
0.0267617
0.0270801
0.0273773
0.026744
0.0260587
0.0262235
0.0264593
0.0261784
0.0259819
0.0261714
0.0263337
0.026293
0.0263323
0.0264894
0.0265439
0.0265493
0.0265465
0.0266383
0.0265646
0.0266468
0.0265861
0.026736
0.0266037
0.0267339
0.0265878
0.0266976
0.0265436
0.0266645
0.026578
0.0266866
0.0266288
0.026711
0.0266686
0.0267085
0.0266815
0.0267046
0.0266712
0.0266363
0.0265401
0.0264024
0.0262023
0.0259716
0.0257215
0.0254783
0.02526
0.0250841
0.0249559
0.0248777
0.0248469
0.0248565
0.0248989
0.0249642
0.0250423
0.0251262
0.0252129
0.0252981
0.0253811
0.025467
0.0255586
0.0256556
0.0257625
0.0258824
0.0260109
0.0261459
0.0262871
0.0264279
0.0265635
0.0266957
0.0268219
0.0269397
0.0270543
0.0271681
0.0272775
0.0273849
0.0274933
0.0275992
0.0276969
0.0277883
0.0278748
0.027953
0.0280202
0.0280824
0.0281416
0.0281947
0.0282415
0.0282888
0.0283343
0.028373
0.0284076
0.0284417
0.0284686
0.0284884
0.0285049
0.028514
0.0285136
0.0285093
0.0284973
0.0284749
0.0284469
0.0284116
0.0283645
0.0283103
0.0282484
0.0281734
0.0280877
0.0279947
0.0278884
0.0277701
0.0276473
0.027519
0.0273836
0.0272507
0.0271248
0.0270039
0.0268913
0.0267925
0.0267042
0.0266226
0.0265487
0.0264817
0.0264179
0.0263582
0.0263061
0.0262636
0.0262324
0.0262145
0.02621
0.0262163
0.0262284
0.0262411
0.0262503
0.0262523
0.0262447
0.0262294
0.0262111
0.026192
0.0261744
0.0261635
0.0261584
0.0261533
0.0261455
0.0261322
0.0261048
0.0260592
0.0259979
0.0259221
0.0258331
0.0257372
0.0256417
0.0255503
0.0254659
0.0253927
0.0253326
0.0252838
0.0252452
0.0252164
0.025195
0.0251785
0.0251656
0.0251566
0.0251509
0.0251466
0.0251438
0.0251426
0.0251406
0.0251372
0.0251346
0.0251337
0.0251333
0.0251337
0.0251361
0.0251388
0.0251408
0.0251444
0.0251521
0.0251624
0.0251712
0.0251784
0.0251868
0.0251954
0.0252005
0.0252028
0.0252046
0.0252038
0.0251965
0.0251825
0.0251657
0.0251494
0.0251352
0.0251267
0.0251241
0.0251188
0.0251013
0.0250757
0.0250556
0.0250432
0.0250233
0.0249848
0.0249417
0.0249167
0.0249063
0.0248789
0.0248116
0.0247183
0.024633
0.0245762
0.0245481
0.0245517
0.0245978
0.0246672
0.0246783
0.0245299
0.0242015
0.0238069
0.023515
0.0233833
0.0232657
0.022919
0.0222389
0.0213988
0.020729
0.020419
0.020312
0.0200056
0.019211
0.0180707
0.0171607
0.0172059
0.0186927
0.0214133
0.0240875
0.024754
0.0222168
0.0171686
0.01155
0.00694883
0.00385595
0.00202437
0.00102267
0.000501975
0.000240582
0.000112824
5.18024e-05
2.32828e-05
1.02355e-05
4.39379e-06
1.83887e-06
7.47932e-07
2.91758e-07
1.06965e-07
3.56477e-08
1.1509e-08
4.50662e-09
4.18133e-09
2.9533e-09
3.44357e-09
2.37194e-09
4.32755e-10
1.30204e-09
1.49714e-09
6.58077e-10
3.95604e-10
3.50274e-10
2.59953e-10
1.58523e-10
2.617e-10
1.34519e-10
2.57402e-10
2.52511e-11
2.40385e-10
4.22775e-11
8.59477e-11
5.77247e-11
2.46461e-11
2.03323e-11
1.55644e-11
2.27855e-11
2.54884e-11
6.34872e-12
2.51843e-11
1.87514e-11
1.15206e-11
2.17586e-11
5.20423e-12
1.35662e-11
6.38105e-12
6.70883e-12
6.04931e-12
2.68068e-12
3.83556e-12
9.06756e-13
2.03339e-12
5.70792e-13
8.33941e-13
6.60701e-13
3.13346e-13
2.32332e-13
4.84888e-14
1.08677e-13
1.7011e-13
2.2596e-13
2.37361e-13
2.28989e-13
2.14329e-13
2.01181e-13
1.95131e-13
1.88789e-13
1.6798e-13
1.24195e-13
5.95182e-14
1.37719e-14
6.10758e-14
8.80097e-14
9.3507e-14
8.79336e-14
8.20282e-14
7.53752e-14
6.57892e-14
5.07656e-14
3.43101e-14
1.74164e-14
6.4849e-15
8.03413e-15
1.38477e-14
1.79322e-14
1.92128e-14
1.90878e-14
1.78466e-14
1.65614e-14
1.44978e-14
1.20083e-14
9.60322e-15
7.9738e-15
6.38123e-15
5.07357e-15
4.80229e-15
4.21772e-15
4.27241e-15
4.27783e-15
4.44174e-15
4.15671e-15
3.55082e-15
3.35275e-15
3.52179e-15
3.49987e-15
3.57964e-15
3.60819e-15
3.36293e-15
3.36075e-15
3.04935e-15
2.86929e-15
3.18696e-15
3.29253e-15
2.9527e-15
2.87438e-15
2.53355e-15
2.51433e-15
2.62241e-15
2.68972e-15
2.29543e-15
2.39199e-15
2.71722e-15
2.36625e-15
2.13736e-15
2.20024e-15
2.15911e-15
2.05149e-15
1.70501e-15
1.52883e-15
1.34898e-15
8.98754e-16
8.49058e-16
6.17912e-16
5.72669e-16
2.2964e-16
4.37123e-16
1.13648e-16
7.98727e-17
2.22153e-17
2.01348e-16
1.78027e-16
1.11022e-16
1.25093e-17
8.70133e-17
9.18585e-17
3.92523e-17
4.52361e-17
1.04083e-17
6.28344e-17
2.19427e-17
0
4.90654e-18
4.90654e-18
0.04
0.0252561
0.026136
0.0266537
0.0269032
0.027013
0.0272321
0.0276446
0.0278502
0.0271283
0.0267463
0.0270751
0.0270824
0.0264984
0.0262961
0.0265586
0.0265866
0.0263888
0.0264353
0.0266366
0.0266784
0.0266312
0.0267092
0.0267282
0.026729
0.026639
0.0267659
0.0266991
0.0268222
0.0267102
0.0268567
0.0266718
0.0267541
0.0265914
0.026707
0.0266008
0.0267218
0.0266751
0.0267525
0.0266836
0.0266974
0.0266294
0.0266087
0.0265472
0.0265088
0.02642
0.0263019
0.0261307
0.0259281
0.0256989
0.0254754
0.025278
0.0251226
0.025017
0.0249653
0.0249622
0.0249992
0.0250657
0.0251493
0.0252402
0.0253318
0.0254191
0.0254998
0.0255775
0.0256556
0.025734
0.025817
0.0259099
0.0260111
0.0261187
0.0262347
0.0263562
0.0264781
0.0266009
0.0267245
0.0268449
0.0269651
0.027087
0.0272055
0.0273206
0.027436
0.027544
0.0276405
0.0277299
0.0278131
0.0278842
0.0279461
0.0280059
0.0280648
0.0281188
0.0281713
0.0282257
0.0282802
0.0283297
0.0283762
0.0284206
0.0284604
0.0284913
0.0285158
0.0285352
0.0285465
0.0285478
0.0285424
0.0285307
0.0285092
0.0284784
0.0284431
0.0284002
0.0283462
0.0282864
0.0282208
0.0281422
0.0280538
0.0279592
0.0278517
0.02773
0.0276018
0.0274675
0.0273246
0.0271803
0.0270439
0.0269147
0.0267935
0.026688
0.0265994
0.0265206
0.0264511
0.026392
0.0263386
0.0262874
0.026242
0.0262055
0.0261766
0.0261559
0.0261461
0.0261447
0.0261459
0.0261464
0.0261444
0.0261371
0.026123
0.0261056
0.0260905
0.0260794
0.0260739
0.0260784
0.0260912
0.026104
0.0261127
0.0261135
0.0260976
0.0260599
0.0260034
0.0259306
0.0258435
0.0257476
0.0256512
0.0255594
0.0254744
0.0254008
0.0253411
0.0252926
0.0252537
0.0252233
0.0251997
0.0251814
0.0251675
0.0251579
0.0251517
0.0251467
0.0251424
0.0251382
0.0251333
0.0251297
0.0251299
0.0251329
0.0251362
0.0251409
0.0251463
0.0251494
0.0251517
0.0251578
0.0251676
0.0251766
0.0251822
0.0251865
0.0251906
0.0251924
0.0251925
0.0251939
0.0251944
0.025188
0.0251738
0.025157
0.0251417
0.0251298
0.0251249
0.0251272
0.0251258
0.0251073
0.0250748
0.0250472
0.0250345
0.0250221
0.0249906
0.0249452
0.0249098
0.0248912
0.0248649
0.0248049
0.024716
0.0246291
0.0245702
0.0245475
0.0245678
0.0246361
0.0247166
0.0247065
0.0244925
0.0240661
0.0235775
0.023233
0.0231068
0.0230469
0.022795
0.0222328
0.0215195
0.0209649
0.0207368
0.0206675
0.0203582
0.0195282
0.0183242
0.0173248
0.0172608
0.018628
0.0212391
0.0238539
0.0245457
0.0221009
0.0171487
0.0115829
0.00699236
0.00389056
0.00204699
0.00103614
0.000509633
0.000244855
0.000115208
5.31492e-05
2.40558e-05
1.06908e-05
4.66964e-06
2.00587e-06
8.51123e-07
3.59994e-07
1.51501e-07
6.26057e-08
2.70565e-08
1.25905e-08
5.12711e-09
2.80138e-09
1.73737e-09
8.60193e-10
7.13193e-10
9.18996e-10
6.36968e-10
5.88691e-10
6.69817e-10
1.72724e-10
1.09242e-10
1.14934e-10
1.62634e-10
2.47828e-10
2.01532e-10
2.37701e-10
8.41362e-11
1.59025e-10
9.1873e-12
5.09398e-11
9.96316e-12
6.78914e-12
2.30034e-11
2.09417e-11
1.88863e-11
3.78176e-11
8.70682e-12
2.94875e-11
2.42678e-11
1.04621e-11
2.15277e-11
2.54864e-12
1.39734e-11
5.77479e-12
7.29698e-12
5.20175e-12
2.80708e-12
3.70336e-12
4.97092e-13
2.00732e-12
7.64969e-13
7.99281e-13
4.48337e-13
1.99324e-13
2.55814e-13
1.65569e-13
2.21577e-13
2.17866e-13
2.2591e-13
2.2166e-13
2.06162e-13
1.99277e-13
2.00251e-13
1.98171e-13
1.76071e-13
1.31686e-13
6.81716e-14
1.20105e-14
4.63371e-14
7.2888e-14
8.06274e-14
7.97275e-14
7.73498e-14
7.2048e-14
6.40656e-14
4.93016e-14