# vtk DataFile Version 3.0
LBM output step 580
ASCII
DATASET STRUCTURED_POINTS
DIMENSIONS 400 100 1
ORIGIN 0 0 0
SPACING 1 1 1
POINT_DATA 40000
SCALARS velocity_magnitude double 1
LOOKUP_TABLE default
0
0
0
0
0
0
0
0
0
0
0
0
0
0
0
0
0
0
0
0
0
0
0
0
0
0
0
0
0
0
0
0
0
0
0
0
0
0
0
0
0
0
0
0
0
0
0
0
0
0
0
0
0
0
0
0
0
0
0
0
0
0
0
0
0
0
0
0
0
0
0
0
0
0
0
0
0
0
0
0
0
0
0
0
0
0
0
0
0
0
0
0
0
0
0
0
0
0
0
0
0
0
0
0
0
0
0
0
0
0
0
0
0
0
0
0
0
0
0
0
0
0
0
0
0
0
0
0
0
0
0
0
0
0
0
0
0
0
0
0
0
0
0
0
0
0
0
0
0
0
0
0
0
0
0
0
0
0
0
0
0
0
0
0
0
0
0
0
0
0
0
0
0
0
0
0
0
0
0
0
0
0
0
0
0
0
0
0
0
0
0
0
0
0
0
0
0
0
0
0
0
0
0
0
0
0
0
0
0
0
0
0
0
0
0
0
0
0
0
0
0
0
0
0
0
0
0
0
0
0
0
0
0
0
0
0
0
0
0
0
0
0
0
0
0
0
0
0
0
0
0
0
0
0
0
0
0
0
0
0
0
0
0
0
0
0
0
0
0
0
0
0
0
0
0
0
0
0
0
0
0
0
0
0
0
0
0
0
0
0
0
0
0
0
0
0
0
0
0
0
0
0
0
0
0
0
0
0
0
0
0
0
0
0
0
0
0
0
0
0
0
0
0
0
0
0
0
0
0
0
0
0
0
0
0
0
0
0
0
0
0
0
0
0
0
0
0
0
0
0
0
0
0
0
0
0
0
0
0
0
0
0
0
0
0
0
0
0
0
0
0
0
0
0
0
0
0
0
0
0
0
0
0
0
0
0
0
0
0
0
0
0
0
0
0
0
0
0
0
0
0.04
0.0143271
0.00890457
0.014183
0.0165963
0.0162794
0.0134129
0.0130007
0.0131307
0.0132521
0.0129431
0.0129825
0.0127607
0.0126333
0.0125375
0.0125521
0.0123856
0.0122535
0.0121117
0.0119785
0.0117683
0.0115963
0.0114163
0.011234
0.0110393
0.010869
0.0106992
0.0105155
0.01035
0.0101788
0.0100308
0.00985729
0.00973003
0.00957109
0.00945788
0.00930591
0.00921203
0.00907699
0.00899809
0.0088865
0.00882998
0.00874399
0.00870255
0.00863822
0.00860333
0.00854531
0.00850211
0.00843925
0.00837966
0.00830275
0.00822566
0.0081394
0.00805284
0.00796348
0.00787964
0.00780138
0.00773081
0.0076702
0.0076226
0.00758705
0.00756203
0.00754905
0.007547
0.00755254
0.00756457
0.0075848
0.00761129
0.00764227
0.00768002
0.00772615
0.00777826
0.00783645
0.007903
0.00797526
0.00804928
0.00812492
0.00820097
0.00827225
0.00833782
0.00839951
0.00845658
0.00850738
0.00855521
0.00860124
0.00864341
0.00868055
0.00871476
0.00874391
0.00876548
0.00877937
0.00878811
0.00879167
0.00879231
0.00879435
0.00880297
0.00881882
0.00884335
0.00887717
0.00891732
0.00895746
0.00899489
0.00902497
0.00904291
0.00904556
0.00903176
0.00900001
0.00895286
0.00889475
0.00883129
0.00876556
0.00870019
0.00863665
0.0085761
0.0085203
0.00847351
0.00843667
0.00840783
0.00838455
0.0083657
0.00835142
0.0083453
0.00835114
0.00836844
0.00839125
0.00841408
0.00843358
0.00844915
0.00846597
0.00849174
0.00852711
0.00856718
0.0086073
0.00864357
0.00867575
0.00871233
0.00876427
0.00883419
0.00891532
0.00899602
0.00906163
0.0091013
0.00911812
0.00912783
0.00914839
0.00919375
0.00927016
0.00937003
0.00947234
0.00955283
0.00959217
0.00957777
0.00950712
0.00939051
0.00924529
0.00908861
0.00893617
0.00880136
0.00869171
0.00860881
0.00855206
0.0085196
0.00850732
0.00851037
0.00852512
0.00854839
0.00857671
0.0086074
0.00863912
0.00867081
0.00870151
0.00873131
0.00876104
0.00879112
0.00882202
0.00885489
0.00889041
0.00892834
0.00896852
0.0090109
0.00905458
0.00909807
0.00914003
0.0091792
0.00921404
0.00924318
0.00926601
0.00928264
0.00929366
0.00930029
0.00930445
0.00930818
0.00931333
0.0093215
0.00933384
0.00935092
0.00937277
0.00939917
0.00942968
0.00946376
0.00950098
0.00954115
0.00958419
0.00963017
0.00967918
0.00973115
0.0097857
0.00984225
0.00990008
0.00995845
0.0100167
0.0100745
0.0101315
0.0101876
0.0102429
0.0102969
0.0103488
0.0103962
0.0104363
0.0104656
0.010482
0.0104854
0.0104784
0.0104656
0.0104511
0.0104371
0.0104227
0.0104047
0.01038
0.010348
0.0103119
0.0102775
0.0102515
0.0102386
0.0102395
0.0102518
0.0102709
0.0102925
0.0103143
0.0103359
0.0103588
0.0103848
0.0104153
0.0104509
0.0104921
0.0105396
0.0105951
0.0106608
0.0107393
0.010833
0.0109434
0.0110712
0.0112156
0.0113743
0.0115434
0.011717
0.0118873
0.0120448
0.0121794
0.0122825
0.0123484
0.0123769
0.012374
0.012352
0.0123276
0.0123185
0.0123392
0.0123969
0.0124895
0.0126068
0.012732
0.0128454
0.0129268
0.012961
0.0129406
0.0128672
0.0127478
0.0125924
0.0124126
0.0122209
0.0120298
0.01185
0.0116908
0.0115613
0.0114699
0.0114232
0.0114262
0.0114821
0.0115914
0.0117486
0.0119428
0.0121628
0.0124019
0.0126555
0.0129157
0.0131715
0.013416
0.0136528
0.0138906
0.0141311
0.0143654
0.0145849
0.0147936
0.0150044
0.0152218
0.015433
0.0156213
0.0157854
0.0159412
0.0161037
0.0162685
0.0164162
0.0165352
0.0166395
0.0167583
0.0169055
0.0170606
0.0171897
0.0172911
0.0174181
0.0176423
0.0179728
0.0182987
0.0184394
0.0183033
0.0180341
0.0179828
0.0184792
0.0195461
0.0207525
0.0213607
0.0207793
0.0190427
0.016897
0.0153859
0.0152616
0.0165542
0.0184325
0.0195021
0.0186153
0.0156821
0.0116717
0.00780026
0.00479027
0.00276473
0.00152643
0.000816015
0.000425622
0.00021758
0.000109302
5.40417e-05
2.63241e-05
1.26427e-05
5.99126e-06
2.80412e-06
1.29781e-06
5.94968e-07
2.70773e-07
1.22677e-07
5.55107e-08
2.51715e-08
1.14696e-08
5.25679e-09
2.41786e-09
1.10763e-09
4.97197e-10
2.11553e-10
7.90487e-11
1.96342e-11
6.03448e-12
1.38394e-11
1.45817e-11
1.24223e-11
9.41823e-12
6.52143e-12
4.16841e-12
2.42358e-12
1.18913e-12
4.00764e-13
6.60109e-14
2.72857e-13
3.5877e-13
3.45962e-13
3.07176e-13
2.66251e-13
2.10061e-13
1.57413e-13
1.24948e-13
8.91339e-14
5.84769e-14
4.41048e-14
2.25749e-14
1.11509e-14
2.07463e-14
1.98384e-14
7.50157e-15
1.05031e-14
6.13898e-15
4.99706e-15
8.53349e-15
8.53349e-15
0.04
0.0229186
0.024122
0.0216596
0.0148853
0.0145625
0.0178415
0.018623
0.0171523
0.0167159
0.0169988
0.0169941
0.0168081
0.0169209
0.0169439
0.0168534
0.0168376
0.0169046
0.0168283
0.0166942
0.0165896
0.0164786
0.0163056
0.0161434
0.0160118
0.0158607
0.0157076
0.0155607
0.0154468
0.0152935
0.0151866
0.0150494
0.0149752
0.0148333
0.0147813
0.0146548
0.0146246
0.0145063
0.0145031
0.0144125
0.0144305
0.0143682
0.0144066
0.0143706
0.0144111
0.0143885
0.0144204
0.0143979
0.0144076
0.0143775
0.0143669
0.0143276
0.0143005
0.0142603
0.0142312
0.0141982
0.0141781
0.0141649
0.0141649
0.0141738
0.0141975
0.0142321
0.0142762
0.0143295
0.0143934
0.0144639
0.0145411
0.0146272
0.0147213
0.0148205
0.0149273
0.0150425
0.0151622
0.0152847
0.0154122
0.0155411
0.0156665
0.0157891
0.0159102
0.0160252
0.016133
0.0162379
0.0163401
0.0164347
0.0165234
0.0166095
0.0166896
0.0167593
0.0168223
0.0168797
0.0169282
0.0169686
0.0170076
0.0170466
0.0170861
0.0171294
0.0171795
0.0172329
0.017287
0.0173386
0.0173833
0.0174165
0.0174352
0.0174355
0.0174166
0.0173793
0.0173246
0.0172557
0.0171802
0.0171009
0.0170186
0.016937
0.0168594
0.0167843
0.0167164
0.0166607
0.0166127
0.0165687
0.0165332
0.0165052
0.0164836
0.0164745
0.0164793
0.0164887
0.0164972
0.0165049
0.0165105
0.0165158
0.0165289
0.0165531
0.0165823
0.0166108
0.0166375
0.0166637
0.0166942
0.0167377
0.0167992
0.0168716
0.0169407
0.0169944
0.0170255
0.0170352
0.0170365
0.0170495
0.017088
0.0171538
0.0172389
0.0173253
0.017388
0.0174057
0.0173686
0.0172773
0.0171404
0.0169753
0.0168028
0.016639
0.0164954
0.0163803
0.0162969
0.0162428
0.0162146
0.0162089
0.0162208
0.016245
0.0162778
0.0163164
0.0163577
0.0163994
0.0164406
0.0164809
0.0165201
0.0165582
0.0165963
0.0166355
0.016676
0.0167186
0.0167643
0.0168126
0.0168628
0.0169147
0.0169672
0.0170185
0.0170674
0.0171124
0.0171527
0.0171873
0.0172163
0.0172403
0.0172605
0.0172786
0.0172963
0.0173154
0.0173375
0.0173634
0.0173937
0.0174286
0.0174677
0.0175106
0.0175569
0.0176063
0.0176584
0.0177134
0.017771
0.0178314
0.0178942
0.0179592
0.0180258
0.018093
0.0181599
0.0182259
0.0182905
0.0183535
0.018415
0.018475
0.0185328
0.0185868
0.0186346
0.0186733
0.0187005
0.0187153
0.0187182
0.0187119
0.0186999
0.0186855
0.0186704
0.0186543
0.0186355
0.0186125
0.0185854
0.0185571
0.0185324
0.0185166
0.0185132
0.0185231
0.0185443
0.0185733
0.0186068
0.0186429
0.0186812
0.0187224
0.0187673
0.0188167
0.0188707
0.0189297
0.018995
0.0190687
0.0191538
0.019253
0.0193686
0.0195017
0.0196517
0.0198168
0.0199931
0.0201752
0.020356
0.020527
0.020679
0.0208035
0.0208944
0.020949
0.0209698
0.0209643
0.0209442
0.0209238
0.0209173
0.0209352
0.0209819
0.0210546
0.0211438
0.0212358
0.0213146
0.0213645
0.0213734
0.0213349
0.0212496
0.021123
0.0209632
0.0207806
0.0205868
0.0203939
0.0202132
0.020055
0.0199287
0.0198431
0.0198045
0.019817
0.0198827
0.0200013
0.020167
0.0203695
0.0205974
0.020843
0.0211004
0.0213616
0.021616
0.0218573
0.0220878
0.0223145
0.022539
0.0227533
0.0229495
0.0231301
0.0233062
0.0234826
0.0236487
0.0237885
0.023899
0.0239946
0.0240902
0.0241824
0.0242517
0.0242858
0.0242994
0.0243236
0.0243725
0.0244225
0.0244352
0.0244084
0.0243988
0.0244792
0.0246549
0.024813
0.0247785
0.0244657
0.0240126
0.0237538
0.0240079
0.0248005
0.0257096
0.026002
0.0250904
0.0230238
0.0205689
0.0187698
0.0183505
0.0193129
0.0208238
0.0215025
0.0202103
0.01687
0.0124836
0.00830741
0.00508307
0.0029238
0.001609
0.000857336
0.000445603
0.000226883
0.000113429
5.57462e-05
2.69446e-05
1.28081e-05
5.98522e-06
2.74716e-06
1.23661e-06
5.44421e-07
2.33241e-07
9.62933e-08
3.75309e-08
1.31434e-08
3.53424e-09
5.15983e-10
1.13441e-09
1.22488e-09
1.04262e-09
8.08099e-10
5.98253e-10
4.31531e-10
3.06219e-10
2.14894e-10
1.49322e-10
1.02812e-10
7.01773e-11
4.7402e-11
3.16757e-11
2.09653e-11
1.37526e-11
8.90841e-12
5.6919e-12
3.62094e-12
2.28067e-12
1.43391e-12
9.19359e-13
5.8428e-13
3.63934e-13
2.35871e-13
1.56774e-13
9.3004e-14
6.7765e-14
5.71548e-14
3.10641e-14
3.1755e-14
3.09971e-14
1.55207e-14
1.35963e-14
7.71709e-15
1.10676e-14
1.73301e-14
8.91299e-15
8.91299e-15
0.04
0.0240864
0.0220034
0.0189978
0.0201363
0.0222718
0.0212642
0.0197547
0.0201388
0.0208088
0.0203883
0.0199523
0.0200264
0.0201364
0.0200215
0.0200501
0.0201588
0.0201781
0.0201334
0.0201522
0.0201268
0.0200319
0.0199333
0.0198654
0.0197724
0.0196617
0.019579
0.0194943
0.0194141
0.0193134
0.0192647
0.0191709
0.0191346
0.0190372
0.0190363
0.0189365
0.0189566
0.0188658
0.0189185
0.0188404
0.0189179
0.0188653
0.0189595
0.0189262
0.0190229
0.0190072
0.0190932
0.0190851
0.0191532
0.0191491
0.0191952
0.0191889
0.0192163
0.0192103
0.0192256
0.0192239
0.0192414
0.0192548
0.0192833
0.0193171
0.0193666
0.0194222
0.0194893
0.0195663
0.0196532
0.0197463
0.0198494
0.0199615
0.0200797
0.0202033
0.0203347
0.0204702
0.020607
0.0207468
0.0208896
0.0210306
0.0211703
0.0213109
0.0214496
0.021583
0.0217145
0.021844
0.0219674
0.022084
0.0221975
0.0223051
0.0224035
0.0224947
0.0225819
0.0226611
0.0227316
0.0227981
0.0228629
0.022923
0.0229818
0.0230431
0.0231058
0.0231661
0.0232246
0.0232798
0.0233266
0.0233603
0.0233808
0.0233857
0.0233713
0.0233377
0.0232895
0.0232264
0.0231508
0.0230695
0.0229842
0.0228929
0.0228013
0.0227136
0.0226286
0.0225492
0.0224794
0.0224157
0.0223569
0.0223067
0.022267
0.0222366
0.022216
0.0222028
0.0221902
0.0221732
0.0221542
0.0221367
0.0221229
0.0221154
0.0221149
0.0221161
0.0221152
0.0221154
0.0221229
0.0221421
0.0221752
0.0222195
0.0222638
0.0222943
0.0223053
0.0223007
0.0222907
0.0222905
0.0223148
0.0223675
0.022439
0.0225113
0.0225638
0.022576
0.0225349
0.0224406
0.0223029
0.0221367
0.0219599
0.0217908
0.0216416
0.0215189
0.0214263
0.0213634
0.0213265
0.0213111
0.0213132
0.0213285
0.0213528
0.0213828
0.0214163
0.0214512
0.0214858
0.0215192
0.021551
0.0215813
0.0216101
0.0216382
0.0216666
0.0216957
0.0217263
0.0217589
0.0217937
0.0218299
0.0218673
0.0219049
0.0219416
0.0219762
0.0220077
0.0220356
0.0220598
0.0220804
0.0220981
0.0221141
0.0221295
0.0221454
0.0221629
0.022183
0.0222062
0.0222328
0.0222628
0.0222957
0.0223313
0.0223693
0.0224094
0.0224516
0.0224959
0.0225423
0.0225909
0.0226412
0.022693
0.0227455
0.0227979
0.0228497
0.0229006
0.0229505
0.0229996
0.0230471
0.0230919
0.0231317
0.0231643
0.0231878
0.0232013
0.0232051
0.0232002
0.0231878
0.0231691
0.0231453
0.0231173
0.0230858
0.023051
0.0230133
0.0229736
0.0229337
0.0228965
0.0228656
0.0228438
0.0228325
0.0228313
0.0228384
0.0228517
0.0228694
0.0228902
0.0229137
0.0229396
0.0229677
0.0229982
0.0230321
0.0230716
0.0231194
0.0231791
0.0232535
0.0233446
0.0234527
0.0235766
0.0237131
0.0238576
0.0240039
0.0241447
0.0242722
0.0243791
0.0244603
0.0245133
0.0245392
0.0245422
0.0245289
0.0245071
0.0244843
0.0244669
0.0244589
0.0244615
0.0244728
0.024488
0.0245009
0.0245044
0.0244911
0.0244538
0.0243868
0.0242873
0.0241556
0.0239944
0.0238096
0.0236091
0.0234031
0.0232017
0.0230154
0.0228541
0.0227262
0.022638
0.0225932
0.0225939
0.0226402
0.0227287
0.0228517
0.0229997
0.0231648
0.0233411
0.0235218
0.0236984
0.0238648
0.0240213
0.0241726
0.0243197
0.024457
0.0245777
0.0246829
0.0247814
0.0248786
0.024967
0.0250313
0.025066
0.0250834
0.0250998
0.025114
0.0251057
0.0250603
0.0249922
0.0249348
0.0249042
0.0248766
0.0248119
0.0247051
0.0246106
0.0246008
0.024684
0.0247592
0.0246688
0.0243311
0.0238557
0.0235349
0.0236724
0.0243253
0.0251266
0.0253856
0.024525
0.0225662
0.0202151
0.0184514
0.0179731
0.0188239
0.0202623
0.0209829
0.0198423
0.0166849
0.0124348
0.00832546
0.00511924
0.00295646
0.00163273
0.000872971
0.000455391
0.000232836
0.000116987
5.78522e-05
2.8185e-05
1.35381e-05
6.41595e-06
3.00276e-06
1.3895e-06
6.36776e-07
2.89635e-07
1.31113e-07
5.92623e-08
2.68353e-08
1.2208e-08
5.58586e-09
2.56581e-09
1.17511e-09
5.29068e-10
2.28422e-10
9.07837e-11
3.33366e-11
1.97559e-11
1.94717e-11
1.76848e-11
1.43057e-11
1.05554e-11
7.24819e-12
4.6117e-12
2.63932e-12
1.31975e-12
5.98377e-13
3.66611e-13
3.85287e-13
4.37538e-13
4.25e-13
3.74305e-13
2.92428e-13
2.21767e-13
1.81013e-13
1.24327e-13
8.05942e-14
6.77441e-14
3.94867e-14
1.98069e-14
2.27033e-14
1.06147e-14
9.215e-15
7.72433e-15
1.21265e-14
7.8438e-15
4.39702e-15
1.59153e-14
1.59153e-14
0.04
0.0259478
0.027236
0.0271156
0.0266747
0.0239794
0.0224047
0.0234539
0.0241303
0.0230439
0.0222632
0.0225956
0.0227114
0.0223421
0.0221779
0.0223492
0.0223506
0.0222948
0.0223554
0.0224451
0.0224035
0.0223738
0.022383
0.0223619
0.0222923
0.0222559
0.0222359
0.0221853
0.0221388
0.0220994
0.0220814
0.0220172
0.0220086
0.0219514
0.0219671
0.02189
0.0219382
0.021866
0.0219423
0.0218722
0.0219832
0.021926
0.0220509
0.022008
0.022139
0.0221098
0.0222313
0.0222186
0.0223264
0.0223243
0.0224102
0.0224145
0.0224767
0.0224806
0.0225226
0.0225304
0.0225651
0.0225834
0.0226234
0.0226618
0.0227171
0.0227753
0.0228486
0.0229293
0.0230198
0.0231185
0.023229
0.0233464
0.0234702
0.0236012
0.0237372
0.0238735
0.0240113
0.0241512
0.0242899
0.0244269
0.0245664
0.0247065
0.0248446
0.0249827
0.025122
0.025257
0.0253863
0.025513
0.0256351
0.0257471
0.0258523
0.0259543
0.0260498
0.0261367
0.0262211
0.0263034
0.0263797
0.0264515
0.0265239
0.0265934
0.026658
0.02672
0.0267783
0.0268284
0.0268704
0.0269024
0.0269209
0.0269253
0.026915
0.0268863
0.0268423
0.0267856
0.0267148
0.026632
0.0265436
0.0264485
0.0263467
0.0262449
0.0261458
0.0260474
0.0259557
0.0258739
0.0257976
0.0257276
0.0256701
0.0256223
0.0255806
0.025546
0.0255149
0.0254799
0.0254409
0.025402
0.0253652
0.0253315
0.0253028
0.0252787
0.0252561
0.0252351
0.0252208
0.0252181
0.0252273
0.0252444
0.0252629
0.0252732
0.0252677
0.0252487
0.0252276
0.0252172
0.0252272
0.0252631
0.0253188
0.0253759
0.0254134
0.0254142
0.0253656
0.0252638
0.0251177
0.0249435
0.0247576
0.0245759
0.0244129
0.0242768
0.0241693
0.0240903
0.0240379
0.0240074
0.0239936
0.0239929
0.024002
0.0240174
0.0240362
0.0240566
0.0240775
0.0240971
0.0241142
0.0241291
0.0241417
0.0241516
0.0241602
0.0241687
0.0241772
0.0241866
0.0241979
0.0242112
0.024226
0.024242
0.0242588
0.0242757
0.0242916
0.0243059
0.0243186
0.0243297
0.0243391
0.0243476
0.0243555
0.0243635
0.0243722
0.0243821
0.0243939
0.0244079
0.0244242
0.0244428
0.0244636
0.024486
0.0245099
0.0245351
0.0245618
0.02459
0.0246201
0.0246519
0.024685
0.0247187
0.0247523
0.0247855
0.0248182
0.0248508
0.0248831
0.0249137
0.0249403
0.0249603
0.0249716
0.0249737
0.0249676
0.0249547
0.024936
0.0249109
0.0248783
0.0248373
0.0247885
0.0247338
0.0246757
0.0246165
0.0245574
0.0244992
0.0244429
0.0243904
0.024344
0.0243061
0.0242778
0.0242591
0.0242486
0.0242444
0.0242446
0.0242474
0.0242519
0.0242574
0.0242645
0.0242748
0.0242913
0.0243173
0.0243563
0.0244111
0.0244829
0.0245714
0.0246743
0.0247877
0.0249062
0.0250227
0.0251298
0.0252204
0.0252894
0.0253346
0.0253573
0.0253619
0.0253543
0.0253402
0.0253234
0.0253048
0.0252828
0.0252548
0.0252185
0.0251727
0.0251176
0.0250548
0.0249867
0.0249145
0.0248368
0.0247491
0.0246456
0.0245214
0.0243739
0.024204
0.0240165
0.0238186
0.0236195
0.023429
0.0232567
0.0231114
0.0229993
0.0229243
0.0228889
0.0228941
0.0229382
0.0230159
0.0231196
0.0232424
0.0233791
0.0235245
0.0236716
0.0238141
0.0239496
0.0240795
0.0242048
0.0243224
0.024428
0.0245225
0.0246121
0.0246996
0.0247768
0.02483
0.0248563
0.0248708
0.0248908
0.024912
0.0249068
0.0248547
0.0247734
0.0247092
0.0246897
0.0246887
0.0246491
0.0245473
0.0244329
0.0243927
0.0244618
0.0245631
0.024541
0.0242837
0.0238532
0.0235085
0.0235648
0.0241355
0.0249184
0.0252497
0.0245191
0.0226795
0.0203822
0.0185938
0.0180423
0.0188303
0.0202722
0.0210709
0.0200307
0.0169296
0.012668
0.00850409
0.00523615
0.00302506
0.00167
0.000892077
0.000464681
0.000237091
0.000118779
5.84998e-05
2.83384e-05
1.35025e-05
6.32597e-06
2.91198e-06
1.31526e-06
5.81494e-07
2.50536e-07
1.04303e-07
4.12363e-08
1.48828e-08
4.41312e-09
9.72236e-10
1.1265e-09
1.21793e-09
1.04775e-09
8.18119e-10
6.08516e-10
4.40588e-10
3.13728e-10
2.20642e-10
1.53692e-10
1.06092e-10
7.24982e-11
4.90637e-11
3.29157e-11
2.18632e-11
1.43006e-11
9.26527e-12
5.96726e-12
3.77755e-12
2.41103e-12
1.54063e-12
9.5488e-13
6.03546e-13
3.92422e-13
2.56328e-13
1.56371e-13
1.07224e-13
7.68746e-14
4.36352e-14
5.18505e-14
4.461e-14
1.51461e-14
2.00028e-14
1.46035e-14
1.67884e-14
2.1104e-14
9.92902e-15
9.27877e-15
9.27877e-15
0.04
0.0266901
0.0278075
0.0264981
0.0257502
0.0257743
0.0266908
0.0259643
0.0244897
0.0243871
0.0250536
0.0247505
0.0239883
0.023892
0.0240458
0.0238769
0.0236562
0.0237302
0.0237967
0.0237597
0.0237616
0.0238438
0.0238495
0.0238242
0.0238365
0.0238597
0.0238368
0.0238173
0.0238235
0.0238094
0.0237894
0.0237595
0.023769
0.0237216
0.0237362
0.0236836
0.0237357
0.0236658
0.0237499
0.0236835
0.0237995
0.0237285
0.0238665
0.0238045
0.0239468
0.0238956
0.0240375
0.0240069
0.0241359
0.0241244
0.0242358
0.0242353
0.0243186
0.0243216
0.0243801
0.024386
0.0244295
0.0244459
0.0244908
0.0245252
0.0245801
0.0246354
0.0247072
0.0247825
0.0248705
0.0249665
0.0250725
0.0251842
0.0253042
0.0254293
0.0255564
0.0256843
0.0258141
0.0259427
0.0260697
0.0261982
0.0263285
0.0264584
0.0265907
0.0267262
0.0268604
0.0269917
0.0271228
0.0272502
0.0273696
0.0274832
0.027594
0.0276974
0.0277932
0.0278869
0.0279797
0.0280664
0.0281486
0.02823
0.028308
0.0283779
0.0284422
0.0285021
0.0285546
0.0285973
0.0286328
0.0286603
0.0286757
0.0286772
0.0286682
0.0286473
0.0286103
0.0285593
0.0284977
0.0284212
0.0283314
0.0282356
0.028133
0.0280223
0.0279116
0.0278034
0.0276961
0.0275952
0.0275058
0.0274246
0.027351
0.0272872
0.0272319
0.0271798
0.0271296
0.0270809
0.02703
0.0269748
0.0269195
0.0268674
0.026817
0.0267693
0.0267273
0.0266909
0.0266601
0.0266383
0.0266276
0.0266231
0.026618
0.0266074
0.0265877
0.0265586
0.0265279
0.0265088
0.02651
0.0265325
0.0265713
0.0266137
0.0266391
0.0266287
0.0265728
0.0264687
0.0263209
0.0261433
0.0259541
0.0257683
0.0255978
0.0254519
0.0253347
0.0252447
0.0251794
0.0251355
0.0251087
0.0250944
0.0250892
0.0250907
0.0250964
0.0251038
0.0251113
0.0251182
0.0251229
0.0251243
0.0251227
0.0251182
0.0251106
0.0251012
0.0250914
0.0250818
0.0250731
0.0250661
0.0250615
0.0250591
0.0250584
0.0250594
0.0250621
0.0250656
0.0250696
0.0250741
0.0250788
0.0250834
0.0250878
0.0250923
0.025097
0.0251021
0.025108
0.0251151
0.0251234
0.025133
0.0251439
0.0251558
0.0251685
0.0251819
0.0251959
0.0252108
0.0252268
0.0252442
0.0252628
0.0252824
0.0253023
0.0253221
0.0253418
0.0253614
0.0253807
0.0253986
0.0254125
0.0254195
0.0254177
0.0254067
0.0253884
0.0253652
0.0253383
0.0253069
0.0252684
0.0252203
0.025162
0.0250956
0.0250247
0.024953
0.0248826
0.0248144
0.0247485
0.0246856
0.0246276
0.0245772
0.0245362
0.0245052
0.0244832
0.0244682
0.0244579
0.0244505
0.0244447
0.0244407
0.0244391
0.0244421
0.0244526
0.0244736
0.0245083
0.0245586
0.0246252
0.0247068
0.0248003
0.0249015
0.0250044
0.0251026
0.0251895
0.0252596
0.02531
0.0253408
0.0253554
0.0253597
0.0253596
0.0253593
0.0253592
0.025355
0.0253395
0.0253052
0.0252472
0.0251654
0.0250639
0.0249506
0.024835
0.0247259
0.0246271
0.0245366
0.0244476
0.0243522
0.0242434
0.0241175
0.0239744
0.0238175
0.0236533
0.0234903
0.0233385
0.0232065
0.0231002
0.0230224
0.0229752
0.0229608
0.0229808
0.0230336
0.023114
0.0232157
0.0233331
0.0234616
0.0235959
0.0237305
0.0238626
0.0239924
0.0241194
0.0242394
0.0243475
0.024444
0.0245354
0.0246267
0.0247119
0.0247769
0.0248153
0.0248384
0.024863
0.0248882
0.0248903
0.0248498
0.0247815
0.0247274
0.0247128
0.024714
0.0246777
0.0245805
0.0244674
0.0244203
0.0244766
0.0245707
0.0245607
0.024337
0.0239433
0.0236092
0.0236276
0.0241148
0.0248019
0.0250765
0.0243664
0.0226204
0.0204412
0.0187334
0.0181867
0.0189104
0.0202682
0.0210204
0.0199913
0.0169323
0.0127049
0.00855161
0.00527776
0.00305541
0.0016901
0.000904685
0.00047236
0.000241691
0.00012151
6.01147e-05
2.92937e-05
1.40697e-05
6.66484e-06
3.11619e-06
1.43956e-06
6.5798e-07
2.9811e-07
1.34196e-07
6.01844e-08
2.69664e-08
1.2098e-08
5.4378e-09
2.44317e-09
1.09072e-09
4.79764e-10
2.08352e-10
9.68445e-11
5.94292e-11
4.68903e-11
3.83841e-11
3.01383e-11
2.25143e-11
1.60972e-11
1.09423e-11
7.01849e-12
4.33323e-12
2.56772e-12
1.39373e-12
7.32069e-13
4.81561e-13
4.18207e-13
3.84149e-13
3.24497e-13
2.74659e-13
2.24689e-13
1.56546e-13
1.17929e-13
9.36095e-14
5.28823e-14
4.04497e-14
3.86724e-14
1.09976e-14
1.21353e-14
5.23566e-15
6.45705e-15
4.19503e-15
7.07778e-15
1.9821e-14
9.96212e-15
9.96212e-15
0.04
0.024665
0.0251915
0.0264202
0.0272035
0.027035
0.026606
0.0258984
0.0261855
0.0265197
0.025938
0.02523
0.0253225
0.0254516
0.0250294
0.0246549
0.0246813
0.0247144
0.0245608
0.0245212
0.0246113
0.0246452
0.0246171
0.0246574
0.0247076
0.0247075
0.0247004
0.0247279
0.0247382
0.0247172
0.0247126
0.0247033
0.0246987
0.0246543
0.0246736
0.0246281
0.0246675
0.0246041
0.024689
0.024616
0.0247262
0.0246464
0.0247828
0.0246979
0.0248414
0.0247707
0.0249179
0.0248678
0.0250102
0.0249881
0.0251137
0.0251065
0.0252053
0.025205
0.025274
0.0252777
0.0253287
0.0253432
0.0253913
0.0254228
0.0254787
0.0255313
0.0256006
0.0256712
0.0257559
0.0258459
0.0259441
0.0260481
0.02616
0.0262737
0.0263892
0.026507
0.0266249
0.0267403
0.0268572
0.0269759
0.0270945
0.0272156
0.0273421
0.0274699
0.0275975
0.0277271
0.0278562
0.0279791
0.0280979
0.0282147
0.0283248
0.0284266
0.0285266
0.0286254
0.0287184
0.0288069
0.0288965
0.028982
0.0290582
0.0291287
0.029194
0.0292473
0.0292908
0.0293287
0.0293577
0.0293761
0.0293881
0.0293907
0.0293816
0.0293644
0.0293379
0.0292958
0.029241
0.0291742
0.0290911
0.0289953
0.0288934
0.0287822
0.0286628
0.0285441
0.028428
0.0283145
0.0282116
0.0281206
0.0280355
0.0279566
0.0278869
0.027822
0.0277591
0.0276994
0.0276397
0.0275757
0.0275082
0.0274403
0.0273747
0.0273129
0.0272571
0.0272089
0.0271682
0.0271339
0.0271064
0.0270852
0.0270661
0.0270433
0.0270155
0.0269844
0.0269533
0.02693
0.0269242
0.0269387
0.0269667
0.0269974
0.027016
0.0270044
0.0269498
0.02685
0.02671
0.0265393
0.0263535
0.0261698
0.0259998
0.0258508
0.0257281
0.0256324
0.0255603
0.0255077
0.0254716
0.0254482
0.0254337
0.0254252
0.0254214
0.0254203
0.0254196
0.0254183
0.0254155
0.0254098
0.0254003
0.0253874
0.0253712
0.0253518
0.0253306
0.025309
0.0252877
0.0252676
0.0252495
0.0252344
0.0252223
0.0252132
0.0252072
0.0252046
0.0252046
0.025207
0.0252114
0.0252172
0.0252237
0.0252303
0.0252368
0.0252431
0.0252496
0.0252566
0.0252643
0.0252728
0.0252816
0.0252906
0.0252993
0.0253077
0.025316
0.0253246
0.0253338
0.0253439
0.0253548
0.0253665
0.0253789
0.0253919
0.0254058
0.0254205
0.0254351
0.0254478
0.0254557
0.0254563
0.0254482
0.0254324
0.0254117
0.0253886
0.0253636
0.0253346
0.0252977
0.0252495
0.0251894
0.0251201
0.025046
0.0249716
0.024899
0.0248284
0.0247596
0.024693
0.0246309
0.0245764
0.0245321
0.0244987
0.0244747
0.0244574
0.0244439
0.0244324
0.0244227
0.0244157
0.0244136
0.0244187
0.0244338
0.0244608
0.0245014
0.0245562
0.0246246
0.0247045
0.0247927
0.024885
0.0249764
0.0250616
0.025136
0.0251963
0.0252413
0.0252728
0.0252948
0.0253123
0.0253297
0.0253482
0.0253647
0.0253717
0.0253589
0.0253168
0.0252402
0.0251303
0.0249944
0.0248449
0.0246963
0.0245622
0.0244508
0.0243623
0.0242901
0.0242244
0.0241557
0.0240767
0.0239838
0.0238765
0.0237574
0.0236324
0.0235093
0.0233958
0.0232975
0.0232173
0.023158
0.0231236
0.0231181
0.023142
0.0231919
0.0232638
0.0233548
0.0234626
0.0235821
0.0237065
0.0238307
0.0239533
0.0240739
0.0241895
0.0242962
0.0243944
0.0244891
0.0245824
0.0246669
0.0247299
0.0247691
0.0247988
0.0248343
0.0248699
0.0248766
0.024833
0.0247562
0.0246959
0.0246864
0.024706
0.0246904
0.024596
0.0244548
0.0243593
0.0243806
0.0244863
0.0245368
0.0243868
0.0240293
0.0236615
0.0235822
0.0239507
0.0245625
0.0248571
0.024261
0.0226585
0.0205701
0.018862
0.0182503
0.0189074
0.0202515
0.0210534
0.0201006
0.0170937
0.0128708
0.00868651
0.0053709
0.00311285
0.00172285
0.000922321
0.000481409
0.000246115
0.000123549
6.09772e-05
2.96046e-05
1.41402e-05
6.64285e-06
3.06758e-06
1.39092e-06
6.1803e-07
2.68123e-07
1.12787e-07
4.5371e-08
1.6947e-08
5.49817e-09
1.4918e-09
1.10578e-09
1.17301e-09
1.02363e-09
8.08167e-10
6.06315e-10
4.41864e-10
3.16179e-10
2.23436e-10
1.56223e-10
1.08135e-10
7.4172e-11
5.04181e-11
3.38597e-11
2.24301e-11
1.47551e-11
9.59314e-12
6.16568e-12
3.97923e-12
2.50346e-12
1.55333e-12
9.91276e-13
6.33329e-13
4.05187e-13
2.51735e-13
1.75912e-13
1.15684e-13
6.92425e-14
7.01152e-14
3.97562e-14
2.02945e-14
3.01544e-14
2.13489e-14
2.09303e-14
2.31126e-14
6.286e-15
1.29264e-14
1.95969e-14
1.95969e-14
0.04
0.0247435
0.02548
0.0259555
0.0261446
0.0261908
0.0263344
0.0267181
0.0269624
0.0262926
0.0259568
0.0263314
0.026362
0.0257215
0.0254016
0.0255296
0.0254176
0.0250746
0.0249884
0.0250907
0.0250525
0.0249791
0.0250325
0.0251013
0.0250826
0.0250824
0.0251288
0.0251443
0.0251224
0.0251228
0.0251342
0.0251063
0.0250893
0.0250647
0.0250795
0.0250257
0.0250647
0.0250132
0.0250881
0.0250096
0.0251204
0.0250337
0.0251604
0.0250633
0.0252078
0.0251213
0.0252679
0.0252075
0.0253566
0.025324
0.0254565
0.0254458
0.0255525
0.0255494
0.0256267
0.0256315
0.0256897
0.0257062
0.0257597
0.0257933
0.025853
0.0259055
0.025975
0.0260449
0.0261274
0.0262115
0.026304
0.026401
0.0265026
0.0266051
0.0267112
0.0268181
0.0269245
0.0270318
0.0271415
0.0272513
0.0273635
0.0274806
0.0276005
0.0277216
0.0278473
0.0279742
0.0280978
0.0282199
0.0283422
0.0284583
0.0285669
0.0286733
0.028778
0.0288753
0.028969
0.0290639
0.0291562
0.0292401
0.0293186
0.0293918
0.0294542
0.0295037
0.0295444
0.0295772
0.0296005
0.0296139
0.0296209
0.0296225
0.0296157
0.0296003
0.0295807
0.0295511
0.0295044
0.0294445
0.0293731
0.0292839
0.0291822
0.0290742
0.028955
0.0288268
0.0287022
0.0285833
0.0284692
0.0283651
0.0282719
0.0281824
0.0280959
0.0280173
0.0279464
0.027878
0.0278105
0.0277429
0.0276703
0.0275917
0.0275145
0.0274438
0.02738
0.0273237
0.0272763
0.0272358
0.0271989
0.0271656
0.0271368
0.0271099
0.0270813
0.0270522
0.0270269
0.0270085
0.0270013
0.0270103
0.0270328
0.0270569
0.0270695
0.0270582
0.0270102
0.0269188
0.0267886
0.0266303
0.0264551
0.0262774
0.0261115
0.0259655
0.0258425
0.025744
0.025669
0.0256133
0.0255724
0.0255433
0.0255235
0.0255099
0.0255001
0.0254932
0.0254882
0.0254827
0.0254757
0.0254669
0.0254547
0.0254384
0.0254188
0.0253961
0.0253704
0.025343
0.0253154
0.0252885
0.0252629
0.0252395
0.0252198
0.0252043
0.025193
0.0251864
0.0251845
0.0251867
0.0251921
0.0252002
0.0252103
0.0252212
0.0252324
0.0252437
0.025255
0.0252664
0.025278
0.0252897
0.0253011
0.0253118
0.0253213
0.0253297
0.025337
0.0253437
0.0253502
0.0253566
0.0253633
0.0253705
0.0253786
0.0253881
0.0253992
0.0254116
0.025424
0.025434
0.0254387
0.0254359
0.0254253
0.0254085
0.0253886
0.0253682
0.0253473
0.025323
0.0252902
0.025245
0.0251861
0.0251164
0.025041
0.024965
0.0248912
0.0248203
0.0247515
0.0246853
0.0246236
0.0245692
0.0245247
0.0244905
0.024465
0.0244453
0.0244288
0.0244144
0.0244027
0.0243959
0.0243969
0.0244081
0.0244314
0.0244675
0.0245162
0.0245765
0.0246464
0.024723
0.0248033
0.0248838
0.0249618
0.0250343
0.0250996
0.0251567
0.0252056
0.0252473
0.0252836
0.0253165
0.0253468
0.025373
0.0253904
0.0253915
0.0253672
0.0253095
0.0252146
0.0250848
0.0249283
0.0247579
0.0245891
0.0244374
0.0243136
0.024221
0.0241559
0.0241095
0.024072
0.0240342
0.0239891
0.023932
0.0238611
0.0237782
0.0236886
0.0235986
0.0235125
0.0234329
0.0233626
0.0233079
0.0232755
0.0232688
0.0232864
0.0233258
0.0233866
0.0234689
0.0235688
0.0236787
0.0237919
0.023906
0.0240201
0.0241311
0.0242352
0.0243331
0.0244294
0.0245249
0.0246104
0.0246742
0.0247168
0.0247543
0.0248003
0.0248447
0.0248559
0.0248133
0.0247373
0.0246799
0.0246783
0.0247116
0.0247105
0.0246196
0.0244605
0.0243319
0.024329
0.0244447
0.0245423
0.024451
0.0241266
0.0237411
0.0235915
0.0238581
0.0243785
0.0246419
0.0241001
0.0226122
0.0206377
0.0189934
0.0183856
0.019007
0.0203064
0.021081
0.0201265
0.0171309
0.012915
0.00872713
0.00540189
0.00313388
0.0017362
0.000930503
0.000486336
0.000249057
0.000125302
6.20229e-05
3.02317e-05
1.45192e-05
6.87429e-06
3.21055e-06
1.4803e-06
6.7456e-07
3.04245e-07
1.36066e-07
6.04648e-08
2.67521e-08
1.18011e-08
5.19085e-09
2.27399e-09
9.92406e-10
4.39472e-10
2.14757e-10
1.32014e-10
9.82933e-11
7.68719e-11
5.91803e-11
4.42734e-11
3.21268e-11
2.2468e-11
1.52292e-11
1.00895e-11
6.38935e-12
3.8441e-12
2.23835e-12
1.25459e-12
7.32195e-13
4.90334e-13
3.75281e-13
3.2384e-13
2.61683e-13
2.01079e-13
1.59834e-13
1.1725e-13
7.84089e-14
6.43377e-14
4.85321e-14
1.80434e-14
1.35664e-14
1.31983e-14
5.50706e-15
5.20525e-15
1.51236e-14
1.44453e-14
7.24915e-16
6.89814e-15
6.89814e-15
0.04
0.0253876
0.0259339
0.0256147
0.0259835
0.026354
0.0264847
0.026458
0.0263443
0.026385
0.0267189
0.0265393
0.02606
0.0259819
0.0261361
0.025871
0.0254649
0.0254029
0.025459
0.0253163
0.0251792
0.0252302
0.0252804
0.0252356
0.0252235
0.0252764
0.0252862
0.0252611
0.0252659
0.0252789
0.0252579
0.0252256
0.0252277
0.0252017
0.0252001
0.0251592